created by fftool

3144 atoms
2000 bonds
1000 angles
4 atom types
1 bond types
1 angle types
0.000000 32.566733 xlo xhi
0.000000 32.566733 ylo yhi
0.000000 32.566733 zlo zhi
Atoms

      1       1    1  -1.112800  2.095475e+01  1.871156e+01  1.656290e+01  # Ow water
      2       1    2   0.556400  2.078718e+01  1.864765e+01  1.562265e+01  # Hw water
      3       1    2   0.556400  2.046629e+01  1.798183e+01  1.694386e+01  # Hw water
      4       2    1  -1.112800  2.362739e+01  2.328196e+01  3.021899e+01  # Ow water
      5       2    2   0.556400  2.349643e+01  2.370675e+01  3.106671e+01  # Hw water
      6       2    2   0.556400  2.425919e+01  2.258476e+01  3.039497e+01  # Hw water
      7       3    1  -1.112800  2.115505e+01  2.079836e+01  1.179416e+01  # Ow water
      8       3    2   0.556400  2.199634e+01  2.094823e+01  1.222545e+01  # Hw water
      9       3    2   0.556400  2.130438e+01  2.003576e+01  1.123526e+01  # Hw water
     10       4    1  -1.112800  1.157797e+01  1.150547e+01  3.833607e+00  # Ow water
     11       4    2   0.556400  1.185804e+01  1.089498e+01  4.515582e+00  # Hw water
     12       4    2   0.556400  1.212216e+01  1.228139e+01  3.967868e+00  # Hw water
     13       5    1  -1.112800  1.695491e+01  2.883177e+01  1.104944e+01  # Ow water
     14       5    2   0.556400  1.785610e+01  2.852158e+01  1.113820e+01  # Hw water
     15       5    2   0.556400  1.684802e+01  2.899357e+01  1.011209e+01  # Hw water
     16       6    1  -1.112800  2.666781e+01  3.839549e+00  2.089287e+00  # Ow water
     17       6    2   0.556400  2.682962e+01  4.581832e+00  1.506999e+00  # Hw water
     18       6    2   0.556400  2.651561e+01  3.100875e+00  1.499861e+00  # Hw water
     19       7    1  -1.112800  1.569914e+01  2.045256e+01  2.864656e+01  # Ow water
     20       7    2   0.556400  1.539732e+01  1.999128e+01  2.786403e+01  # Hw water
     21       7    2   0.556400  1.490443e+01  2.082877e+01  2.902488e+01  # Hw water
     22       8    1  -1.112800  1.261015e+01  1.176976e+01  6.952897e+00  # Ow water
     23       8    2   0.556400  1.213157e+01  1.243852e+01  6.463041e+00  # Hw water
     24       8    2   0.556400  1.351770e+01  1.207403e+01  6.950565e+00  # Hw water
     25       9    1  -1.112800  3.018783e+01  2.782974e+01  1.251417e+01  # Ow water
     26       9    2   0.556400  3.106670e+01  2.815410e+01  1.271063e+01  # Hw water
     27       9    2   0.556400  2.982414e+01  2.759060e+01  1.336667e+01  # Hw water
     28      10    1  -1.112800  1.490175e+01  2.286090e+01  3.105234e+01  # Ow water
     29      10    2   0.556400  1.577977e+01  2.324188e+01  3.103928e+01  # Hw water
     30      10    2   0.556400  1.432882e+01  2.356819e+01  3.075617e+01  # Hw water
     31      11    1  -1.112800  3.485092e+00  7.543757e+00  3.861925e+00  # Ow water
     32      11    2   0.556400  4.283058e+00  7.980872e+00  4.159261e+00  # Hw water
     33      11    2   0.556400  3.029084e+00  7.302280e+00  4.668135e+00  # Hw water
     34      12    1  -1.112800  3.104586e+01  2.559817e+01  1.695521e+01  # Ow water
     35      12    2   0.556400  3.106672e+01  2.609844e+01  1.777101e+01  # Hw water
     36      12    2   0.556400  3.031562e+01  2.498926e+01  1.706571e+01  # Hw water
     37      13    1  -1.112800  6.308998e+00  2.300265e+01  2.582311e+01  # Ow water
     38      13    2   0.556400  5.854239e+00  2.242712e+01  2.520813e+01  # Hw water
     39      13    2   0.556400  6.803534e+00  2.360493e+01  2.526730e+01  # Hw water
     40      14    1  -1.112800  1.725800e+00  4.495250e+00  1.422795e+01  # Ow water
     41      14    2   0.556400  1.499783e+00  4.348377e+00  1.330949e+01  # Hw water
     42      14    2   0.556400  2.432317e+00  3.873787e+00  1.440358e+01  # Hw water
     43      15    1  -1.112800  8.486700e+00  1.286092e+01  2.832279e+01  # Ow water
     44      15    2   0.556400  8.066295e+00  1.227491e+01  2.895213e+01  # Hw water
     45      15    2   0.556400  9.070930e+00  1.229359e+01  2.781977e+01  # Hw water
     46      16    1  -1.112800  5.580511e+00  7.785043e+00  1.080106e+01  # Ow water
     47      16    2   0.556400  5.730553e+00  8.723498e+00  1.068696e+01  # Hw water
     48      16    2   0.556400  5.451859e+00  7.452813e+00  9.912632e+00  # Hw water
     49      17    1  -1.112800  3.092939e+01  3.097408e+01  3.088077e+01  # Ow water
     50      17    2   0.556400  3.106665e+01  3.105990e+01  2.993736e+01  # Hw water
     51      17    2   0.556400  3.106637e+01  3.004376e+01  3.105956e+01  # Hw water
     52      18    1  -1.112800  9.888726e+00  1.500023e+00  1.735887e+00  # Ow water
     53      18    2   0.556400  9.014778e+00  1.811080e+00  1.499907e+00  # Hw water
     54      18    2   0.556400  1.042728e+01  2.291049e+00  1.757516e+00  # Hw water
     55      19    1  -1.112800  3.862257e+00  1.998018e+01  1.227730e+01  # Ow water
     56      19    2   0.556400  4.085873e+00  2.090662e+01  1.236638e+01  # Hw water
     57      19    2   0.556400  3.865398e+00  1.982225e+01  1.133322e+01  # Hw water
     58      20    1  -1.112800  2.096524e+01  2.203792e+01  1.515989e+00  # Ow water
     59      20    2   0.556400  2.000958e+01  2.198603e+01  1.500000e+00  # Hw water
     60      20    2   0.556400  2.121238e+01  2.165411e+01  2.357322e+00  # Hw water
     61      21    1  -1.112800  2.680882e+01  1.011225e+01  9.165260e+00  # Ow water
     62      21    2   0.556400  2.699270e+01  1.101735e+01  9.416689e+00  # Hw water
     63      21    2   0.556400  2.677525e+01  9.634970e+00  9.994296e+00  # Hw water
     64      22    1  -1.112800  2.055995e+01  1.512344e+00  1.414885e+01  # Ow water
     65      22    2   0.556400  2.026488e+01  2.414961e+00  1.426904e+01  # Hw water
     66      22    2   0.556400  2.095601e+01  1.503349e+00  1.327748e+01  # Hw water
     67      23    1  -1.112800  3.087976e+01  2.308267e+01  2.601920e+01  # Ow water
     68      23    2   0.556400  3.106702e+01  2.400203e+01  2.582963e+01  # Hw water
     69      23    2   0.556400  3.106645e+01  2.298736e+01  2.695317e+01  # Hw water
     70      24    1  -1.112800  9.354743e+00  3.106670e+01  3.047159e+01  # Ow water
     71      24    2   0.556400  1.010400e+01  3.104042e+01  3.106670e+01  # Hw water
     72      24    2   0.556400  8.591808e+00  3.097291e+01  3.104200e+01  # Hw water
     73      25    1  -1.112800  2.430767e+00  1.598359e+01  2.585821e+01  # Ow water
     74      25    2   0.556400  1.500025e+00  1.620591e+01  2.588103e+01  # Hw water
     75      25    2   0.556400  2.828566e+00  1.654761e+01  2.652143e+01  # Hw water
     76      26    1  -1.112800  2.477667e+01  3.106672e+01  7.634359e+00  # Ow water
     77      26    2   0.556400  2.494526e+01  3.105580e+01  6.692189e+00  # Hw water
     78      26    2   0.556400  2.564643e+01  3.105742e+01  8.033924e+00  # Hw water
     79      27    1  -1.112800  2.360660e+01  1.229162e+01  4.736741e+00  # Ow water
     80      27    2   0.556400  2.452619e+01  1.254546e+01  4.658255e+00  # Hw water
     81      27    2   0.556400  2.326002e+01  1.236733e+01  3.847710e+00  # Hw water
     82      28    1  -1.112800  3.003131e+01  3.048731e+01  2.682735e+01  # Ow water
     83      28    2   0.556400  2.968324e+01  3.106840e+01  2.615102e+01  # Hw water
     84      28    2   0.556400  3.023096e+01  3.106707e+01  2.756236e+01  # Hw water
     85      29    1  -1.112800  2.657054e+01  1.274060e+01  2.468814e+01  # Ow water
     86      29    2   0.556400  2.693429e+01  1.243944e+01  2.385554e+01  # Hw water
     87      29    2   0.556400  2.712126e+01  1.232838e+01  2.535374e+01  # Hw water
     88      30    1  -1.112800  2.637389e+01  5.497427e+00  9.571310e+00  # Ow water
     89      30    2   0.556400  2.632878e+01  4.658240e+00  9.113095e+00  # Hw water
     90      30    2   0.556400  2.559539e+01  5.508980e+00  1.012811e+01  # Hw water
     91      31    1  -1.112800  2.325311e+00  1.357406e+01  2.101204e+01  # Ow water
     92      31    2   0.556400  2.048421e+00  1.337015e+01  2.011874e+01  # Hw water
     93      31    2   0.556400  3.053868e+00  1.297632e+01  2.117981e+01  # Hw water
     94      32    1  -1.112800  1.500000e+00  2.848083e+01  2.786586e+01  # Ow water
     95      32    2   0.556400  1.504079e+00  2.752379e+01  2.784942e+01  # Hw water
     96      32    2   0.556400  2.416778e+00  2.872689e+01  2.774255e+01  # Hw water
     97      33    1  -1.112800  6.113156e+00  9.754520e+00  5.173635e+00  # Ow water
     98      33    2   0.556400  5.557323e+00  1.053379e+01  5.177766e+00  # Hw water
     99      33    2   0.556400  7.002359e+00  1.009451e+01  5.073859e+00  # Hw water
    100      34    1  -1.112800  3.917800e+00  1.842556e+01  2.854726e+01  # Ow water
    101      34    2   0.556400  3.824268e+00  1.862730e+01  2.761625e+01  # Hw water
    102      34    2   0.556400  3.935894e+00  1.746927e+01  2.858497e+01  # Hw water
    103      35    1  -1.112800  1.873456e+01  1.286023e+01  1.982822e+01  # Ow water
    104      35    2   0.556400  1.866977e+01  1.217863e+01  2.049714e+01  # Hw water
    105      35    2   0.556400  1.785675e+01  1.290922e+01  1.944971e+01  # Hw water
    106      36    1  -1.112800  3.101418e+01  2.892481e+00  1.533878e+01  # Ow water
    107      36    2   0.556400  3.106696e+01  3.662753e+00  1.477299e+01  # Hw water
    108      36    2   0.556400  3.101215e+01  2.150341e+00  1.473425e+01  # Hw water
    109      37    1  -1.112800  1.999798e+01  1.499851e+00  2.414037e+01  # Ow water
    110      37    2   0.556400  1.991747e+01  1.851025e+00  2.325357e+01  # Hw water
    111      37    2   0.556400  2.092631e+01  1.595707e+00  2.435309e+01  # Hw water
    112      38    1  -1.112800  2.730934e+01  1.256033e+01  1.505583e+00  # Ow water
    113      38    2   0.556400  2.707487e+01  1.163231e+01  1.499397e+00  # Hw water
    114      38    2   0.556400  2.826650e+01  1.256607e+01  1.499348e+00  # Hw water
    115      39    1  -1.112800  9.765808e+00  5.426453e+00  1.367196e+01  # Ow water
    116      39    2   0.556400  1.015743e+01  5.558965e+00  1.280865e+01  # Hw water
    117      39    2   0.556400  9.314853e+00  4.584853e+00  1.360430e+01  # Hw water
    118      40    1  -1.112800  2.703296e+01  2.316620e+01  1.755976e+01  # Ow water
    119      40    2   0.556400  2.733650e+01  2.401265e+01  1.788781e+01  # Hw water
    120      40    2   0.556400  2.657162e+01  2.337505e+01  1.674750e+01  # Hw water
    121      41    1  -1.112800  2.044189e+00  1.744085e+01  1.688396e+01  # Ow water
    122      41    2   0.556400  2.018033e+00  1.757139e+01  1.593607e+01  # Hw water
    123      41    2   0.556400  1.499970e+00  1.814412e+01  1.723817e+01  # Hw water
    124      42    1  -1.112800  2.154254e+01  1.195975e+01  2.401469e+01  # Ow water
    125      42    2   0.556400  2.194485e+01  1.226576e+01  2.320183e+01  # Hw water
    126      42    2   0.556400  2.198670e+01  1.113374e+01  2.420617e+01  # Hw water
    127      43    1  -1.112800  2.144556e+01  9.364625e+00  4.642570e+00  # Ow water
    128      43    2   0.556400  2.224413e+01  8.854305e+00  4.777072e+00  # Hw water
    129      43    2   0.556400  2.078427e+01  8.716212e+00  4.400750e+00  # Hw water
    130      44    1  -1.112800  8.039859e+00  2.550165e+01  1.540359e+00  # Ow water
    131      44    2   0.556400  7.501968e+00  2.471091e+01  1.500097e+00  # Hw water
    132      44    2   0.556400  8.789227e+00  2.525482e+01  2.082346e+00  # Hw water
    133      45    1  -1.112800  2.784619e+01  2.024457e+00  2.799836e+01  # Ow water
    134      45    2   0.556400  2.755199e+01  2.759307e+00  2.853657e+01  # Hw water
    135      45    2   0.556400  2.839089e+01  1.500037e+00  2.858532e+01  # Hw water
    136      46    1  -1.112800  1.433728e+01  1.420558e+01  1.558398e+01  # Ow water
    137      46    2   0.556400  1.359344e+01  1.445290e+01  1.613332e+01  # Hw water
    138      46    2   0.556400  1.489862e+01  1.368628e+01  1.615969e+01  # Hw water
    139      47    1  -1.112800  1.962418e+00  1.984097e+00  1.264159e+01  # Ow water
    140      47    2   0.556400  1.499894e+00  1.499910e+00  1.195758e+01  # Hw water
    141      47    2   0.556400  1.499900e+00  1.759706e+00  1.344903e+01  # Hw water
    142      48    1  -1.112800  4.483689e+00  9.240867e+00  2.312558e+01  # Ow water
    143      48    2   0.556400  3.935803e+00  1.000725e+01  2.329502e+01  # Hw water
    144      48    2   0.556400  4.828824e+00  8.997925e+00  2.398470e+01  # Hw water
    145      49    1  -1.112800  2.245083e+01  1.544698e+01  3.093051e+01  # Ow water
    146      49    2   0.556400  2.213212e+01  1.455473e+01  3.106666e+01  # Hw water
    147      49    2   0.556400  2.168152e+01  1.600002e+01  3.106668e+01  # Hw water
    148      50    1  -1.112800  2.725553e+01  2.084811e+01  1.304985e+01  # Ow water
    149      50    2   0.556400  2.800086e+01  2.107183e+01  1.249249e+01  # Hw water
    150      50    2   0.556400  2.682716e+01  2.012141e+01  1.259749e+01  # Hw water
    151      51    1  -1.112800  5.636272e+00  8.883737e+00  3.099888e+01  # Ow water
    152      51    2   0.556400  6.282399e+00  9.586695e+00  3.106669e+01  # Hw water
    153      51    2   0.556400  6.096241e+00  8.178014e+00  3.054433e+01  # Hw water
    154      52    1  -1.112800  1.597395e+01  1.793919e+01  2.139144e+01  # Ow water
    155      52    2   0.556400  1.572372e+01  1.835002e+01  2.056389e+01  # Hw water
    156      52    2   0.556400  1.649729e+01  1.718020e+01  2.113399e+01  # Hw water
    157      53    1  -1.112800  1.171777e+01  3.058018e+01  1.385476e+01  # Ow water
    158      53    2   0.556400  1.096600e+01  3.106670e+01  1.351656e+01  # Hw water
    159      53    2   0.556400  1.227542e+01  3.043800e+01  1.308989e+01  # Hw water
    160      54    1  -1.112800  2.085984e+00  9.212797e+00  2.761427e+01  # Ow water
    161      54    2   0.556400  1.500261e+00  9.261110e+00  2.685874e+01  # Hw water
    162      54    2   0.556400  1.500005e+00  9.152844e+00  2.836877e+01  # Hw water
    163      55    1  -1.112800  3.098555e+01  6.221811e+00  2.960457e+01  # Ow water
    164      55    2   0.556400  3.106219e+01  7.104724e+00  2.924288e+01  # Hw water
    165      55    2   0.556400  3.106681e+01  6.342160e+00  3.055069e+01  # Hw water
    166      56    1  -1.112800  1.000535e+01  2.957245e+01  1.697848e+01  # Ow water
    167      56    2   0.556400  1.060277e+01  3.021387e+01  1.659391e+01  # Hw water
    168      56    2   0.556400  1.056757e+01  2.901012e+01  1.751132e+01  # Hw water
    169      57    1  -1.112800  1.897592e+00  4.666974e+00  1.671611e+01  # Ow water
    170      57    2   0.556400  2.311215e+00  5.515211e+00  1.655599e+01  # Hw water
    171      57    2   0.556400  2.574489e+00  4.148110e+00  1.715065e+01  # Hw water
    172      58    1  -1.112800  2.192083e+01  3.073702e+01  8.570216e+00  # Ow water
    173      58    2   0.556400  2.104127e+01  3.106672e+01  8.754347e+00  # Hw water
    174      58    2   0.556400  2.245661e+01  3.106671e+01  9.291651e+00  # Hw water
    175      59    1  -1.112800  6.015637e+00  1.597384e+01  1.586036e+01  # Ow water
    176      59    2   0.556400  5.709844e+00  1.683056e+01  1.615825e+01  # Hw water
    177      59    2   0.556400  6.496924e+00  1.561779e+01  1.660723e+01  # Hw water
    178      60    1  -1.112800  2.882218e+01  2.810122e+01  3.084370e+00  # Ow water
    179      60    2   0.556400  2.817064e+01  2.776001e+01  3.696990e+00  # Hw water
    180      60    2   0.556400  2.849687e+01  2.896961e+01  2.847092e+00  # Hw water
    181      61    1  -1.112800  6.287169e+00  2.091212e+01  1.627656e+00  # Ow water
    182      61    2   0.556400  6.622215e+00  2.002462e+01  1.499867e+00  # Hw water
    183      61    2   0.556400  7.049223e+00  2.147706e+01  1.499803e+00  # Hw water
    184      62    1  -1.112800  5.539953e+00  2.764680e+01  2.462181e+01  # Ow water
    185      62    2   0.556400  5.657291e+00  2.818304e+01  2.540596e+01  # Hw water
    186      62    2   0.556400  4.927821e+00  2.696124e+01  2.488927e+01  # Hw water
    187      63    1  -1.112800  1.227587e+01  1.618774e+01  1.250439e+01  # Ow water
    188      63    2   0.556400  1.241376e+01  1.710690e+01  1.227558e+01  # Hw water
    189      63    2   0.556400  1.242637e+01  1.571191e+01  1.168759e+01  # Hw water
    190      64    1  -1.112800  1.414072e+01  2.279660e+01  1.087931e+01  # Ow water
    191      64    2   0.556400  1.363204e+01  2.341566e+01  1.035563e+01  # Hw water
    192      64    2   0.556400  1.492575e+01  2.262939e+01  1.035777e+01  # Hw water
    193      65    1  -1.112800  8.929257e+00  2.768131e+01  3.106670e+01  # Ow water
    194      65    2   0.556400  9.500595e+00  2.843639e+01  3.092648e+01  # Hw water
    195      65    2   0.556400  9.502133e+00  2.692274e+01  3.095436e+01  # Hw water
    196      66    1  -1.112800  2.844316e+01  1.911753e+01  3.072751e+01  # Ow water
    197      66    2   0.556400  2.815230e+01  1.827107e+01  3.106681e+01  # Hw water
    198      66    2   0.556400  2.933239e+01  1.921936e+01  3.106681e+01  # Hw water
    199      67    1  -1.112800  8.392180e+00  9.987708e+00  1.128494e+01  # Ow water
    200      67    2   0.556400  7.664800e+00  9.958956e+00  1.190648e+01  # Hw water
    201      67    2   0.556400  8.001434e+00  9.741072e+00  1.044666e+01  # Hw water
    202      68    1  -1.112800  1.897864e+01  2.892664e+01  1.933023e+01  # Ow water
    203      68    2   0.556400  1.928562e+01  2.896666e+01  2.023598e+01  # Hw water
    204      68    2   0.556400  1.951206e+01  2.957267e+01  1.886727e+01  # Hw water
    205      69    1  -1.112800  1.123911e+01  2.234668e+01  1.117693e+01  # Ow water
    206      69    2   0.556400  1.101562e+01  2.186207e+01  1.197156e+01  # Hw water
    207      69    2   0.556400  1.042429e+01  2.237406e+01  1.067538e+01  # Hw water
    208      70    1  -1.112800  6.135175e+00  5.715166e+00  2.543413e+01  # Ow water
    209      70    2   0.556400  5.620087e+00  5.069828e+00  2.494992e+01  # Hw water
    210      70    2   0.556400  6.311498e+00  6.407978e+00  2.479761e+01  # Hw water
    211      71    1  -1.112800  1.574802e+00  2.554243e+01  1.661766e+00  # Ow water
    212      71    2   0.556400  2.229470e+00  2.622175e+01  1.500000e+00  # Hw water
    213      71    2   0.556400  1.500000e+00  2.550341e+01  2.615239e+00  # Hw water
    214      72    1  -1.112800  2.248447e+01  1.929342e+01  1.848106e+01  # Ow water
    215      72    2   0.556400  2.313784e+01  1.905617e+01  1.782299e+01  # Hw water
    216      72    2   0.556400  2.211366e+01  1.845735e+01  1.876340e+01  # Hw water
    217      73    1  -1.112800  2.058684e+00  1.979582e+01  8.439768e+00  # Ow water
    218      73    2   0.556400  1.499999e+00  1.924128e+01  8.984366e+00  # Hw water
    219      73    2   0.556400  2.942117e+00  1.945320e+01  8.575367e+00  # Hw water
    220      74    1  -1.112800  2.315688e+01  6.568707e+00  2.859535e+01  # Ow water
    221      74    2   0.556400  2.224086e+01  6.839583e+00  2.865666e+01  # Hw water
    222      74    2   0.556400  2.328197e+01  6.352828e+00  2.767124e+01  # Hw water
    223      75    1  -1.112800  1.643853e+01  1.870702e+01  5.021380e+00  # Ow water
    224      75    2   0.556400  1.705254e+01  1.940311e+01  5.255223e+00  # Hw water
    225      75    2   0.556400  1.574442e+01  1.876884e+01  5.677589e+00  # Hw water
    226      76    1  -1.112800  1.932217e+01  1.471506e+01  4.433511e+00  # Ow water
    227      76    2   0.556400  1.876517e+01  1.394878e+01  4.570605e+00  # Hw water
    228      76    2   0.556400  1.952719e+01  1.502371e+01  5.316080e+00  # Hw water
    229      77    1  -1.112800  1.412264e+01  5.680939e+00  9.879544e+00  # Ow water
    230      77    2   0.556400  1.460940e+01  5.934251e+00  9.095244e+00  # Hw water
    231      77    2   0.556400  1.397118e+01  4.741594e+00  9.775049e+00  # Hw water
    232      78    1  -1.112800  2.080428e+01  3.095652e+01  1.593063e+01  # Ow water
    233      78    2   0.556400  1.987998e+01  3.105608e+01  1.615861e+01  # Hw water
    234      78    2   0.556400  2.126729e+01  3.103848e+01  1.676438e+01  # Hw water
    235      79    1  -1.112800  3.055933e+01  2.373275e+01  9.866566e+00  # Ow water
    236      79    2   0.556400  3.106670e+01  2.349635e+01  1.064305e+01  # Hw water
    237      79    2   0.556400  2.987413e+01  2.306632e+01  9.815550e+00  # Hw water
    238      80    1  -1.112800  2.375563e+00  2.592110e+01  1.865244e+01  # Ow water
    239      80    2   0.556400  2.790734e+00  2.532952e+01  1.928005e+01  # Hw water
    240      80    2   0.556400  1.500050e+00  2.607266e+01  1.900843e+01  # Hw water
    241      81    1  -1.112800  1.149298e+01  7.773193e+00  1.218723e+01  # Ow water
    242      81    2   0.556400  1.114091e+01  8.310015e+00  1.147723e+01  # Hw water
    243      81    2   0.556400  1.199506e+01  7.088994e+00  1.174449e+01  # Hw water
    244      82    1  -1.112800  2.791383e+01  2.111785e+00  3.097039e+01  # Ow water
    245      82    2   0.556400  2.868944e+01  1.559164e+00  3.106672e+01  # Hw water
    246      82    2   0.556400  2.717642e+01  1.507955e+00  3.105894e+01  # Hw water
    247      83    1  -1.112800  2.787531e+01  2.700742e+01  3.106670e+01  # Ow water
    248      83    2   0.556400  2.800296e+01  2.675984e+01  3.015093e+01  # Hw water
    249      83    2   0.556400  2.707288e+01  2.752927e+01  3.106461e+01  # Hw water
    250      84    1  -1.112800  2.406776e+01  8.401411e+00  2.315392e+01  # Ow water
    251      84    2   0.556400  2.463779e+01  8.206040e+00  2.389764e+01  # Hw water
    252      84    2   0.556400  2.329194e+01  8.802973e+00  2.354516e+01  # Hw water
    253      85    1  -1.112800  3.106679e+01  2.335774e+01  2.343680e+00  # Ow water
    254      85    2   0.556400  3.041781e+01  2.330084e+01  1.642386e+00  # Hw water
    255      85    2   0.556400  3.057100e+01  2.318508e+01  3.144061e+00  # Hw water
    256      86    1  -1.112800  2.281797e+01  6.605304e+00  2.463867e+01  # Ow water
    257      86    2   0.556400  2.292780e+01  6.146624e+00  2.380574e+01  # Hw water
    258      86    2   0.556400  2.193811e+01  6.979389e+00  2.459244e+01  # Hw water
    259      87    1  -1.112800  1.072714e+01  1.849694e+01  2.223275e+01  # Ow water
    260      87    2   0.556400  1.054050e+01  1.913755e+01  2.291905e+01  # Hw water
    261      87    2   0.556400  1.034812e+01  1.768013e+01  2.255740e+01  # Hw water
    262      88    1  -1.112800  3.989918e+00  2.233635e+01  9.484594e+00  # Ow water
    263      88    2   0.556400  3.200215e+00  2.189754e+01  9.168292e+00  # Hw water
    264      88    2   0.556400  3.824048e+00  2.248764e+01  1.041509e+01  # Hw water
    265      89    1  -1.112800  1.131350e+01  2.479033e+01  1.220190e+01  # Ow water
    266      89    2   0.556400  1.140268e+01  2.414824e+01  1.290617e+01  # Hw water
    267      89    2   0.556400  1.218672e+01  2.484325e+01  1.181341e+01  # Hw water
    268      90    1  -1.112800  7.383750e+00  1.568026e+01  1.906850e+01  # Ow water
    269      90    2   0.556400  8.177095e+00  1.601474e+01  1.865023e+01  # Hw water
    270      90    2   0.556400  7.484332e+00  1.591007e+01  1.999225e+01  # Hw water
    271      91    1  -1.112800  1.501141e+01  1.651456e+01  2.324116e+01  # Ow water
    272      91    2   0.556400  1.461189e+01  1.573623e+01  2.362952e+01  # Hw water
    273      91    2   0.556400  1.550685e+01  1.691254e+01  2.395697e+01  # Hw water
    274      92    1  -1.112800  2.028133e+01  1.677391e+01  1.555099e+00  # Ow water
    275      92    2   0.556400  2.121480e+01  1.697843e+01  1.500053e+00  # Hw water
    276      92    2   0.556400  2.012715e+01  1.660455e+01  2.484493e+00  # Hw water
    277      93    1  -1.112800  2.729608e+01  3.106670e+01  2.031501e+00  # Ow water
    278      93    2   0.556400  2.810123e+01  3.105130e+01  1.514070e+00  # Hw water
    279      93    2   0.556400  2.666004e+01  3.058797e+01  1.500000e+00  # Hw water
    280      94    1  -1.112800  2.636018e+01  1.648318e+01  1.902726e+01  # Ow water
    281      94    2   0.556400  2.690459e+01  1.688699e+01  1.835140e+01  # Hw water
    282      94    2   0.556400  2.565410e+01  1.605540e+01  1.854282e+01  # Hw water
    283      95    1  -1.112800  1.851532e+01  2.407759e+01  2.352736e+00  # Ow water
    284      95    2   0.556400  1.785691e+01  2.441975e+01  2.957427e+00  # Hw water
    285      95    2   0.556400  1.808049e+01  2.407652e+01  1.500000e+00  # Hw water
    286      96    1  -1.112800  2.505200e+01  2.708485e+01  2.807591e+01  # Ow water
    287      96    2   0.556400  2.450212e+01  2.785939e+01  2.819398e+01  # Hw water
    288      96    2   0.556400  2.565036e+01  2.709920e+01  2.882289e+01  # Hw water
    289      97    1  -1.112800  2.459201e+01  2.194690e+01  1.728748e+01  # Ow water
    290      97    2   0.556400  2.386279e+01  2.147056e+01  1.768443e+01  # Hw water
    291      97    2   0.556400  2.526531e+01  2.128122e+01  1.714685e+01  # Hw water
    292      98    1  -1.112800  1.875211e+01  1.005152e+01  3.027217e+01  # Ow water
    293      98    2   0.556400  1.874015e+01  1.070009e+01  2.956830e+01  # Hw water
    294      98    2   0.556400  1.854573e+01  1.055095e+01  3.106224e+01  # Hw water
    295      99    1  -1.112800  3.105465e+01  1.176012e+01  2.055246e+00  # Ow water
    296      99    2   0.556400  3.094651e+01  1.202411e+01  2.968945e+00  # Hw water
    297      99    2   0.556400  3.102004e+01  1.258019e+01  1.562795e+00  # Hw water
    298     100    1  -1.112800  1.701457e+01  3.072233e+01  1.651841e+01  # Ow water
    299     100    2   0.556400  1.661625e+01  2.988025e+01  1.629823e+01  # Hw water
    300     100    2   0.556400  1.649364e+01  3.104982e+01  1.725163e+01  # Hw water
    301     101    1  -1.112800  1.581780e+00  2.454450e+01  2.161294e+01  # Ow water
    302     101    2   0.556400  1.500018e+00  2.453246e+01  2.256657e+01  # Hw water
    303     101    2   0.556400  1.500000e+00  2.362678e+01  2.135345e+01  # Hw water
    304     102    1  -1.112800  2.856627e+01  1.535280e+01  2.558284e+01  # Ow water
    305     102    2   0.556400  2.782787e+01  1.581953e+01  2.597418e+01  # Hw water
    306     102    2   0.556400  2.816680e+01  1.461515e+01  2.512184e+01  # Hw water
    307     103    1  -1.112800  1.272266e+01  1.669869e+00  2.202644e+01  # Ow water
    308     103    2   0.556400  1.184197e+01  1.504514e+00  2.168989e+01  # Hw water
    309     103    2   0.556400  1.270585e+01  2.586145e+00  2.230281e+01  # Hw water
    310     104    1  -1.112800  2.207257e+00  5.739062e+00  1.904379e+01  # Ow water
    311     104    2   0.556400  1.499913e+00  5.686955e+00  1.968658e+01  # Hw water
    312     104    2   0.556400  2.285980e+00  6.672865e+00  1.884874e+01  # Hw water
    313     105    1  -1.112800  5.604008e+00  5.853097e+00  2.157407e+01  # Ow water
    314     105    2   0.556400  6.295476e+00  6.513400e+00  2.152822e+01  # Hw water
    315     105    2   0.556400  5.866736e+00  5.280083e+00  2.229439e+01  # Hw water
    316     106    1  -1.112800  1.500000e+00  1.724533e+01  3.101945e+01  # Ow water
    317     106    2   0.556400  1.505723e+00  1.820135e+01  3.106670e+01  # Hw water
    318     106    2   0.556400  1.513727e+00  1.705128e+01  3.008223e+01  # Hw water
    319     107    1  -1.112800  2.408193e+01  2.029476e+01  2.421249e+01  # Ow water
    320     107    2   0.556400  2.488433e+01  2.011154e+01  2.470118e+01  # Hw water
    321     107    2   0.556400  2.381157e+01  2.116284e+01  2.451178e+01  # Hw water
    322     108    1  -1.112800  1.500001e+00  1.386490e+01  4.945088e+00  # Ow water
    323     108    2   0.556400  1.554242e+00  1.458290e+01  4.314404e+00  # Hw water
    324     108    2   0.556400  1.603066e+00  1.428654e+01  5.798212e+00  # Hw water
    325     109    1  -1.112800  2.327770e+01  2.143778e+01  2.718385e+01  # Ow water
    326     109    2   0.556400  2.316257e+01  2.049873e+01  2.703843e+01  # Hw water
    327     109    2   0.556400  2.336640e+01  2.152455e+01  2.813297e+01  # Hw water
    328     110    1  -1.112800  1.808146e+01  1.942533e+01  1.486815e+01  # Ow water
    329     110    2   0.556400  1.869484e+01  1.998685e+01  1.534216e+01  # Hw water
    330     110    2   0.556400  1.819964e+01  1.855876e+01  1.525714e+01  # Hw water
    331     111    1  -1.112800  1.789038e+01  2.591760e+01  1.210874e+01  # Ow water
    332     111    2   0.556400  1.833873e+01  2.517597e+01  1.170230e+01  # Hw water
    333     111    2   0.556400  1.859654e+01  2.649177e+01  1.240522e+01  # Hw water
    334     112    1  -1.112800  1.679747e+01  2.233003e+01  1.275973e+01  # Ow water
    335     112    2   0.556400  1.630384e+01  2.164827e+01  1.230392e+01  # Hw water
    336     112    2   0.556400  1.713078e+01  2.289286e+01  1.206090e+01  # Hw water
    337     113    1  -1.112800  2.355535e+01  2.893460e+01  1.526473e+00  # Ow water
    338     113    2   0.556400  2.343746e+01  2.875480e+01  2.459214e+00  # Hw water
    339     113    2   0.556400  2.414358e+01  2.968926e+01  1.500000e+00  # Hw water
    340     114    1  -1.112800  1.561384e+00  6.028456e+00  2.816702e+01  # Ow water
    341     114    2   0.556400  1.637193e+00  6.589547e+00  2.893881e+01  # Hw water
    342     114    2   0.556400  1.509504e+00  6.638333e+00  2.743109e+01  # Hw water
    343     115    1  -1.112800  2.710667e+01  4.790528e+00  6.740941e+00  # Ow water
    344     115    2   0.556400  2.643467e+01  5.472114e+00  6.750707e+00  # Hw water
    345     115    2   0.556400  2.793367e+01  5.269612e+00  6.688308e+00  # Hw water
    346     116    1  -1.112800  1.503681e+00  2.193364e+01  2.447422e+01  # Ow water