created by fftool

3144 atoms
2000 bonds
1000 angles
4 atom types
1 bond types
1 angle types
0.000000 32.566733 xlo xhi
0.000000 32.566733 ylo yhi
0.000000 32.566733 zlo zhi
Atoms

      1       1    1  -1.112800  2.569741e+01  2.868286e+01  1.499923e+00  # Ow water
      2       1    2   0.556400  2.483701e+01  2.831856e+01  1.707834e+00  # Hw water
      3       1    2   0.556400  2.619433e+01  2.860455e+01  2.314269e+00  # Hw water
      4       2    1  -1.112800  2.470004e+01  1.502589e+00  1.337184e+01  # Ow water
      5       2    2   0.556400  2.532666e+01  1.605396e+00  1.408808e+01  # Hw water
      6       2    2   0.556400  2.514796e+01  1.864575e+00  1.260727e+01  # Hw water
      7       3    1  -1.112800  2.150074e+01  1.319664e+01  2.022046e+01  # Ow water
      8       3    2   0.556400  2.226789e+01  1.326922e+01  2.078831e+01  # Hw water
      9       3    2   0.556400  2.090484e+01  1.387694e+01  2.053401e+01  # Hw water
     10       4    1  -1.112800  1.559137e+01  2.887190e+01  2.573248e+01  # Ow water
     11       4    2   0.556400  1.503388e+01  2.951295e+01  2.617348e+01  # Hw water
     12       4    2   0.556400  1.587079e+01  2.827752e+01  2.642881e+01  # Hw water
     13       5    1  -1.112800  4.450742e+00  4.030062e+00  6.432865e+00  # Ow water
     14       5    2   0.556400  5.249924e+00  4.299015e+00  6.885856e+00  # Hw water
     15       5    2   0.556400  3.853169e+00  3.770494e+00  7.134121e+00  # Hw water
     16       6    1  -1.112800  3.046876e+01  1.411369e+01  5.317043e+00  # Ow water
     17       6    2   0.556400  2.968192e+01  1.360656e+01  5.516896e+00  # Hw water
     18       6    2   0.556400  3.106643e+01  1.348184e+01  4.917321e+00  # Hw water
     19       7    1  -1.112800  1.802914e+01  9.971459e+00  3.967251e+00  # Ow water
     20       7    2   0.556400  1.863085e+01  9.251743e+00  4.157459e+00  # Hw water
     21       7    2   0.556400  1.850417e+01  1.052366e+01  3.346244e+00  # Hw water
     22       8    1  -1.112800  3.814504e+00  1.291442e+01  2.473610e+01  # Ow water
     23       8    2   0.556400  3.045533e+00  1.342453e+01  2.499047e+01  # Hw water
     24       8    2   0.556400  4.194513e+00  1.262357e+01  2.556509e+01  # Hw water
     25       9    1  -1.112800  2.139741e+01  2.278575e+01  6.231379e+00  # Ow water
     26       9    2   0.556400  2.155502e+01  2.303655e+01  7.141591e+00  # Hw water
     27       9    2   0.556400  2.062246e+01  2.222507e+01  6.267677e+00  # Hw water
     28      10    1  -1.112800  3.106150e+01  4.927518e+00  2.440738e+01  # Ow water
     29      10    2   0.556400  3.028834e+01  5.407556e+00  2.470405e+01  # Hw water
     30      10    2   0.556400  3.103726e+01  4.106341e+00  2.489861e+01  # Hw water
     31      11    1  -1.112800  3.106410e+01  6.047607e+00  1.482270e+01  # Ow water
     32      11    2   0.556400  3.102163e+01  6.390808e+00  1.393015e+01  # Hw water
     33      11    2   0.556400  3.016796e+01  6.121067e+00  1.515096e+01  # Hw water
     34      12    1  -1.112800  5.385220e+00  1.185200e+01  2.200465e+01  # Ow water
     35      12    2   0.556400  5.156579e+00  1.185827e+01  2.107519e+01  # Hw water
     36      12    2   0.556400  5.218815e+00  1.274756e+01  2.229878e+01  # Hw water
     37      13    1  -1.112800  2.496817e+01  2.090233e+01  2.870559e+01  # Ow water
     38      13    2   0.556400  2.453162e+01  2.174029e+01  2.855237e+01  # Hw water
     39      13    2   0.556400  2.572048e+01  2.091192e+01  2.811384e+01  # Hw water
     40      14    1  -1.112800  2.084596e+01  1.647977e+00  3.829773e+00  # Ow water
     41      14    2   0.556400  2.002264e+01  1.525101e+00  4.302289e+00  # Hw water
     42      14    2   0.556400  2.151929e+01  1.619877e+00  4.509528e+00  # Hw water
     43      15    1  -1.112800  8.895831e+00  1.488444e+01  1.763993e+01  # Ow water
     44      15    2   0.556400  9.050912e+00  1.401519e+01  1.800950e+01  # Hw water
     45      15    2   0.556400  8.179587e+00  1.524357e+01  1.816362e+01  # Hw water
     46      16    1  -1.112800  5.647754e+00  1.702868e+01  1.497053e+01  # Ow water
     47      16    2   0.556400  4.695103e+00  1.708038e+01  1.504807e+01  # Hw water
     48      16    2   0.556400  5.890204e+00  1.780644e+01  1.446801e+01  # Hw water
     49      17    1  -1.112800  2.771598e+01  2.334127e+01  1.448017e+01  # Ow water
     50      17    2   0.556400  2.703588e+01  2.266801e+01  1.450064e+01  # Hw water
     51      17    2   0.556400  2.846078e+01  2.291715e+01  1.405400e+01  # Hw water
     52      18    1  -1.112800  1.628135e+00  1.214811e+01  6.485794e+00  # Ow water
     53      18    2   0.556400  1.500002e+00  1.251460e+01  5.610870e+00  # Hw water
     54      18    2   0.556400  1.570913e+00  1.290218e+01  7.072599e+00  # Hw water
     55      19    1  -1.112800  2.532765e+01  2.121767e+01  3.732230e+00  # Ow water
     56      19    2   0.556400  2.508745e+01  2.152848e+01  4.605118e+00  # Hw water
     57      19    2   0.556400  2.607373e+01  2.063681e+01  3.881187e+00  # Hw water
     58      20    1  -1.112800  1.256832e+01  1.995210e+01  3.468921e+00  # Ow water
     59      20    2   0.556400  1.197640e+01  2.070334e+01  3.430254e+00  # Hw water
     60      20    2   0.556400  1.336224e+01  2.024897e+01  3.024193e+00  # Hw water
     61      21    1  -1.112800  3.068657e+01  1.936101e+01  4.767584e+00  # Ow water
     62      21    2   0.556400  3.104938e+01  1.931837e+01  3.882838e+00  # Hw water
     63      21    2   0.556400  3.106409e+01  2.015614e+01  5.143723e+00  # Hw water
     64      22    1  -1.112800  2.636615e+01  1.738436e+01  9.642297e+00  # Ow water
     65      22    2   0.556400  2.588813e+01  1.689162e+01  1.030933e+01  # Hw water
     66      22    2   0.556400  2.644425e+01  1.826651e+01  1.000553e+01  # Hw water
     67      23    1  -1.112800  1.775614e+00  4.001093e+00  8.748739e+00  # Ow water
     68      23    2   0.556400  1.520949e+00  4.914959e+00  8.621362e+00  # Hw water
     69      23    2   0.556400  1.501957e+00  3.798144e+00  9.643252e+00  # Hw water
     70      24    1  -1.112800  1.151114e+01  2.694020e+01  3.028110e+01  # Ow water
     71      24    2   0.556400  1.142193e+01  2.747977e+01  3.106669e+01  # Hw water
     72      24    2   0.556400  1.147585e+01  2.603954e+01  3.060328e+01  # Hw water
     73      25    1  -1.112800  1.476500e+01  8.245989e+00  1.664686e+00  # Ow water
     74      25    2   0.556400  1.456963e+01  7.309313e+00  1.638278e+00  # Hw water
     75      25    2   0.556400  1.392343e+01  8.671403e+00  1.500357e+00  # Hw water
     76      26    1  -1.112800  2.383346e+01  2.325610e+01  1.500295e+00  # Ow water
     77      26    2   0.556400  2.288932e+01  2.325977e+01  1.657835e+00  # Hw water
     78      26    2   0.556400  2.422217e+01  2.319761e+01  2.373055e+00  # Hw water
     79      27    1  -1.112800  5.716170e+00  3.099315e+01  2.047191e+01  # Ow water
     80      27    2   0.556400  4.845381e+00  3.089389e+01  2.085675e+01  # Hw water
     81      27    2   0.556400  5.555811e+00  3.106667e+01  1.953111e+01  # Hw water
     82      28    1  -1.112800  1.455792e+01  3.093877e+01  1.268393e+01  # Ow water
     83      28    2   0.556400  1.392355e+01  3.106669e+01  1.338922e+01  # Hw water
     84      28    2   0.556400  1.541088e+01  3.101613e+01  1.311138e+01  # Hw water
     85      29    1  -1.112800  1.085282e+01  1.496875e+01  1.571728e+01  # Ow water
     86      29    2   0.556400  1.144697e+01  1.500495e+01  1.646689e+01  # Hw water
     87      29    2   0.556400  1.059566e+01  1.404858e+01  1.565910e+01  # Hw water
     88      30    1  -1.112800  1.049738e+01  1.444563e+01  1.205726e+01  # Ow water
     89      30    2   0.556400  1.045226e+01  1.403126e+01  1.291894e+01  # Hw water
     90      30    2   0.556400  1.141122e+01  1.471636e+01  1.196872e+01  # Hw water
     91      31    1  -1.112800  2.435915e+00  5.353782e+00  2.148626e+01  # Ow water
     92      31    2   0.556400  1.500181e+00  5.492852e+00  2.134035e+01  # Hw water
     93      31    2   0.556400  2.650692e+00  4.588114e+00  2.095349e+01  # Hw water
     94      32    1  -1.112800  6.129836e+00  4.001537e+00  2.852536e+01  # Ow water
     95      32    2   0.556400  5.615233e+00  3.797013e+00  2.774460e+01  # Hw water
     96      32    2   0.556400  6.672079e+00  3.225294e+00  2.866553e+01  # Hw water
     97      33    1  -1.112800  1.616038e+01  2.228292e+01  2.380790e+00  # Ow water
     98      33    2   0.556400  1.567215e+01  2.146432e+01  2.292735e+00  # Hw water
     99      33    2   0.556400  1.649016e+01  2.246159e+01  1.500137e+00  # Hw water
    100      34    1  -1.112800  3.049563e+01  1.341197e+01  2.398090e+00  # Ow water
    101      34    2   0.556400  3.078497e+01  1.369075e+01  1.529304e+00  # Hw water
    102      34    2   0.556400  3.001771e+01  1.416525e+01  2.745057e+00  # Hw water
    103      35    1  -1.112800  1.486760e+01  1.034374e+01  2.153558e+01  # Ow water
    104      35    2   0.556400  1.562054e+01  9.779420e+00  2.135993e+01  # Hw water
    105      35    2   0.556400  1.471583e+01  1.080507e+01  2.071073e+01  # Hw water
    106      36    1  -1.112800  1.854378e+01  1.571842e+01  2.053533e+01  # Ow water
    107      36    2   0.556400  1.783832e+01  1.633006e+01  2.032450e+01  # Hw water
    108      36    2   0.556400  1.930750e+01  1.606458e+01  2.007366e+01  # Hw water
    109      37    1  -1.112800  1.521132e+01  8.940242e+00  1.593747e+01  # Ow water
    110      37    2   0.556400  1.474330e+01  9.380258e+00  1.522784e+01  # Hw water
    111      37    2   0.556400  1.604554e+01  8.677846e+00  1.554830e+01  # Hw water
    112      38    1  -1.112800  6.587168e+00  4.749320e+00  3.093873e+01  # Ow water
    113      38    2   0.556400  5.885451e+00  4.111001e+00  3.106668e+01  # Hw water
    114      38    2   0.556400  7.392341e+00  4.234171e+00  3.098919e+01  # Hw water
    115      39    1  -1.112800  1.157041e+01  2.284192e+01  1.201844e+01  # Ow water
    116      39    2   0.556400  1.092134e+01  2.352518e+01  1.185079e+01  # Hw water
    117      39    2   0.556400  1.163776e+01  2.236652e+01  1.119039e+01  # Hw water
    118      40    1  -1.112800  2.669729e+01  1.733729e+00  2.378294e+01  # Ow water
    119      40    2   0.556400  2.583402e+01  1.500128e+00  2.344174e+01  # Hw water
    120      40    2   0.556400  2.730422e+01  1.500002e+00  2.308063e+01  # Hw water
    121      41    1  -1.112800  1.019223e+01  3.047624e+01  7.759667e+00  # Ow water
    122      41    2   0.556400  1.086837e+01  3.106669e+01  8.091981e+00  # Hw water
    123      41    2   0.556400  9.430327e+00  3.103849e+01  7.619601e+00  # Hw water
    124      42    1  -1.112800  1.416984e+01  3.083440e+01  5.064511e+00  # Ow water
    125      42    2   0.556400  1.510739e+01  3.100250e+01  5.159193e+00  # Hw water
    126      42    2   0.556400  1.398509e+01  3.101715e+01  4.143264e+00  # Hw water
    127      43    1  -1.112800  1.802089e+00  1.146103e+01  2.065388e+00  # Ow water
    128      43    2   0.556400  1.500046e+00  1.217205e+01  1.500189e+00  # Hw water
    129      43    2   0.556400  1.550512e+00  1.066239e+01  1.601582e+00  # Hw water
    130      44    1  -1.112800  8.399658e+00  3.063569e+01  1.500331e+00  # Ow water
    131      44    2   0.556400  8.984192e+00  3.105913e+01  2.129019e+00  # Hw water
    132      44    2   0.556400  7.554821e+00  3.106650e+01  1.630284e+00  # Hw water
    133      45    1  -1.112800  1.781556e+01  1.099789e+01  6.507540e+00  # Ow water
    134      45    2   0.556400  1.820133e+01  1.014426e+01  6.704333e+00  # Hw water
    135      45    2   0.556400  1.746059e+01  1.129937e+01  7.343804e+00  # Hw water
    136      46    1  -1.112800  4.059821e+00  2.082756e+01  1.520084e+01  # Ow water
    137      46    2   0.556400  4.486829e+00  2.016282e+01  1.466046e+01  # Hw water
    138      46    2   0.556400  4.044848e+00  2.161074e+01  1.465071e+01  # Hw water
    139      47    1  -1.112800  1.396977e+01  1.132138e+01  8.564283e+00  # Ow water
    140      47    2   0.556400  1.363893e+01  1.042330e+01  8.549187e+00  # Hw water
    141      47    2   0.556400  1.480848e+01  1.126052e+01  9.021533e+00  # Hw water
    142      48    1  -1.112800  2.839930e+01  1.166052e+01  1.837926e+01  # Ow water
    143      48    2   0.556400  2.745303e+01  1.169455e+01  1.851941e+01  # Hw water
    144      48    2   0.556400  2.851737e+01  1.099842e+01  1.769815e+01  # Hw water
    145      49    1  -1.112800  3.106566e+01  2.157214e+01  1.494660e+01  # Ow water
    146      49    2   0.556400  3.105498e+01  2.224221e+01  1.563006e+01  # Hw water
    147      49    2   0.556400  3.105462e+01  2.206564e+01  1.412650e+01  # Hw water
    148      50    1  -1.112800  1.377931e+01  1.264618e+01  1.486008e+01  # Ow water
    149      50    2   0.556400  1.301686e+01  1.319861e+01  1.468767e+01  # Hw water
    150      50    2   0.556400  1.346378e+01  1.175266e+01  1.472486e+01  # Hw water
    151      51    1  -1.112800  5.678916e+00  8.878907e+00  1.477044e+01  # Ow water
    152      51    2   0.556400  5.244348e+00  8.106020e+00  1.440985e+01  # Hw water
    153      51    2   0.556400  5.781692e+00  9.467305e+00  1.402247e+01  # Hw water
    154      52    1  -1.112800  9.409556e+00  9.666442e+00  5.600351e+00  # Ow water
    155      52    2   0.556400  1.000200e+01  9.217882e+00  4.996995e+00  # Hw water
    156      52    2   0.556400  8.806996e+00  1.014665e+01  5.032418e+00  # Hw water
    157      53    1  -1.112800  1.593035e+01  2.682772e+01  1.689449e+00  # Ow water
    158      53    2   0.556400  1.580960e+01  2.589024e+01  1.538531e+00  # Hw water
    159      53    2   0.556400  1.506881e+01  2.721043e+01  1.523572e+00  # Hw water
    160      54    1  -1.112800  1.119767e+01  1.683388e+01  4.150444e+00  # Ow water
    161      54    2   0.556400  1.105813e+01  1.766745e+01  3.701085e+00  # Hw water
    162      54    2   0.556400  1.203226e+01  1.694365e+01  4.606112e+00  # Hw water
    163      55    1  -1.112800  5.698559e+00  2.572627e+01  9.656756e+00  # Ow water
    164      55    2   0.556400  5.200928e+00  2.567972e+01  8.840408e+00  # Hw water
    165      55    2   0.556400  5.101357e+00  2.614224e+01  1.027848e+01  # Hw water
    166      56    1  -1.112800  3.106674e+01  2.743458e+01  7.135375e+00  # Ow water
    167      56    2   0.556400  3.101231e+01  2.805580e+01  7.861568e+00  # Hw water
    168      56    2   0.556400  3.084043e+01  2.658991e+01  7.524654e+00  # Hw water
    169      57    1  -1.112800  1.980927e+01  2.799522e+01  7.899509e+00  # Ow water
    170      57    2   0.556400  1.947718e+01  2.841542e+01  7.106180e+00  # Hw water
    171      57    2   0.556400  1.942056e+01  2.712057e+01  7.888523e+00  # Hw water
    172      58    1  -1.112800  1.763515e+01  3.027772e+01  5.365365e+00  # Ow water
    173      58    2   0.556400  1.792934e+01  3.106652e+01  5.820860e+00  # Hw water
    174      58    2   0.556400  1.724696e+01  2.973498e+01  6.051640e+00  # Hw water
    175      59    1  -1.112800  1.016030e+01  1.026358e+01  1.776796e+01  # Ow water
    176      59    2   0.556400  1.070002e+01  9.733641e+00  1.718137e+01  # Hw water
    177      59    2   0.556400  9.622468e+00  1.079702e+01  1.718280e+01  # Hw water
    178      60    1  -1.112800  1.617130e+01  2.640869e+01  6.517601e+00  # Ow water
    179      60    2   0.556400  1.635010e+01  2.725842e+01  6.114840e+00  # Hw water
    180      60    2   0.556400  1.701468e+01  2.612997e+01  6.874337e+00  # Hw water
    181      61    1  -1.112800  1.911280e+01  1.830353e+00  9.338073e+00  # Ow water
    182      61    2   0.556400  1.868286e+01  1.500050e+00  1.012692e+01  # Hw water
    183      61    2   0.556400  1.839679e+01  1.988242e+00  8.722738e+00  # Hw water
    184      62    1  -1.112800  2.115814e+01  2.065553e+01  4.099501e+00  # Ow water
    185      62    2   0.556400  2.142675e+01  1.989375e+01  3.585912e+00  # Hw water
    186      62    2   0.556400  2.189713e+01  2.126056e+01  4.035885e+00  # Hw water
    187      63    1  -1.112800  3.092366e+01  2.114408e+00  1.499955e+00  # Ow water
    188      63    2   0.556400  3.106652e+01  2.977174e+00  1.889125e+00  # Hw water
    189      63    2   0.556400  3.106649e+01  1.499818e+00  2.219751e+00  # Hw water
    190      64    1  -1.112800  3.766346e+00  1.258275e+01  1.823489e+01  # Ow water
    191      64    2   0.556400  3.487342e+00  1.340436e+01  1.783073e+01  # Hw water
    192      64    2   0.556400  3.705470e+00  1.193645e+01  1.753146e+01  # Hw water
    193      65    1  -1.112800  1.590349e+01  1.647187e+01  3.100042e+01  # Ow water
    194      65    2   0.556400  1.630227e+01  1.733952e+01  3.106669e+01  # Hw water
    195      65    2   0.556400  1.662178e+01  1.589720e+01  3.073574e+01  # Hw water
    196      66    1  -1.112800  1.714013e+01  5.915384e+00  1.225551e+01  # Ow water
    197      66    2   0.556400  1.659561e+01  5.383534e+00  1.283591e+01  # Hw water
    198      66    2   0.556400  1.802950e+01  5.802971e+00  1.259109e+01  # Hw water
    199      67    1  -1.112800  2.023003e+01  1.744224e+01  1.602701e+01  # Ow water
    200      67    2   0.556400  1.983965e+01  1.677951e+01  1.659676e+01  # Hw water
    201      67    2   0.556400  2.061250e+01  1.808088e+01  1.662874e+01  # Hw water
    202      68    1  -1.112800  2.094715e+00  1.096291e+01  1.228473e+01  # Ow water
    203      68    2   0.556400  1.500159e+00  1.082680e+01  1.302243e+01  # Hw water
    204      68    2   0.556400  2.364362e+00  1.187829e+01  1.235956e+01  # Hw water
    205      69    1  -1.112800  1.639928e+00  1.737192e+01  1.302671e+01  # Ow water
    206      69    2   0.556400  1.500039e+00  1.758755e+01  1.210467e+01  # Hw water
    207      69    2   0.556400  2.583721e+00  1.722981e+01  1.309943e+01  # Hw water
    208      70    1  -1.112800  2.828413e+01  2.119161e+01  1.680729e+01  # Ow water
    209      70    2   0.556400  2.819844e+01  2.031763e+01  1.718814e+01  # Hw water
    210      70    2   0.556400  2.876469e+01  2.105178e+01  1.599136e+01  # Hw water
    211      71    1  -1.112800  2.214176e+01  1.577314e+01  2.209594e+01  # Ow water
    212      71    2   0.556400  2.200802e+01  1.512883e+01  2.279107e+01  # Hw water
    213      71    2   0.556400  2.128418e+01  1.618210e+01  2.197954e+01  # Hw water
    214      72    1  -1.112800  3.865120e+00  1.786931e+01  2.475188e+01  # Ow water
    215      72    2   0.556400  3.652444e+00  1.862354e+01  2.530155e+01  # Hw water
    216      72    2   0.556400  3.629829e+00  1.814422e+01  2.386571e+01  # Hw water
    217      73    1  -1.112800  1.001614e+01  3.104620e+01  1.621752e+01  # Ow water
    218      73    2   0.556400  1.096591e+01  3.104933e+01  1.609855e+01  # Hw water
    219      73    2   0.556400  9.666437e+00  3.083817e+01  1.535111e+01  # Hw water
    220      74    1  -1.112800  9.134862e+00  1.829126e+01  5.563906e+00  # Ow water
    221      74    2   0.556400  9.344670e+00  1.916664e+01  5.238465e+00  # Hw water
    222      74    2   0.556400  9.839082e+00  1.808905e+01  6.179872e+00  # Hw water
    223      75    1  -1.112800  2.334882e+01  1.071213e+01  2.105248e+01  # Ow water
    224      75    2   0.556400  2.361298e+01  1.016387e+01  2.179130e+01  # Hw water
    225      75    2   0.556400  2.280892e+01  1.013838e+01  2.050884e+01  # Hw water
    226      76    1  -1.112800  2.215795e+01  9.603460e+00  2.864230e+01  # Ow water
    227      76    2   0.556400  2.225906e+01  8.884395e+00  2.926596e+01  # Hw water
    228      76    2   0.556400  2.297741e+01  1.009394e+01  2.870661e+01  # Hw water
    229      77    1  -1.112800  1.710839e+01  2.844510e+01  8.459587e+00  # Ow water
    230      77    2   0.556400  1.615790e+01  2.852080e+01  8.543578e+00  # Hw water
    231      77    2   0.556400  1.741222e+01  2.824341e+01  9.344597e+00  # Hw water
    232      78    1  -1.112800  2.232176e+00  2.157667e+01  2.848125e+01  # Ow water
    233      78    2   0.556400  1.500002e+00  2.219275e+01  2.850569e+01  # Hw water
    234      78    2   0.556400  1.879807e+00  2.077010e+01  2.885743e+01  # Hw water
    235      79    1  -1.112800  1.051846e+01  1.511182e+00  9.941269e+00  # Ow water
    236      79    2   0.556400  1.014769e+01  1.549920e+00  9.059647e+00  # Hw water
    237      79    2   0.556400  1.146507e+01  1.553088e+00  9.805574e+00  # Hw water
    238      80    1  -1.112800  1.562972e+00  2.054327e+01  2.551039e+01  # Ow water
    239      80    2   0.556400  1.544093e+00  2.143052e+01  2.586908e+01  # Hw water
    240      80    2   0.556400  1.535169e+00  1.997313e+01  2.627876e+01  # Hw water
    241      81    1  -1.112800  1.722739e+01  1.739330e+01  1.155250e+01  # Ow water
    242      81    2   0.556400  1.754560e+01  1.711333e+01  1.241075e+01  # Hw water
    243      81    2   0.556400  1.694543e+01  1.829843e+01  1.168464e+01  # Hw water
    244      82    1  -1.112800  2.368511e+01  1.580794e+00  6.166049e+00  # Ow water
    245      82    2   0.556400  2.406778e+01  1.500045e+00  7.039704e+00  # Hw water
    246      82    2   0.556400  2.355324e+01  2.521464e+00  6.047814e+00  # Hw water
    247      83    1  -1.112800  1.631031e+01  2.669698e+01  2.421600e+01  # Ow water
    248      83    2   0.556400  1.714138e+01  2.638192e+01  2.386062e+01  # Hw water
    249      83    2   0.556400  1.566946e+01  2.650921e+01  2.353024e+01  # Hw water
    250      84    1  -1.112800  1.500001e+00  4.150350e+00  2.764612e+01  # Ow water
    251      84    2   0.556400  2.399040e+00  4.053927e+00  2.733201e+01  # Hw water
    252      84    2   0.556400  1.525556e+00  3.831807e+00  2.854839e+01  # Hw water
    253      85    1  -1.112800  2.610741e+01  2.539581e+01  2.110925e+00  # Ow water
    254      85    2   0.556400  2.602372e+01  2.612799e+01  1.500075e+00  # Hw water
    255      85    2   0.556400  2.626123e+01  2.463376e+01  1.552496e+00  # Hw water
    256      86    1  -1.112800  2.236275e+01  1.739232e+01  2.711322e+01  # Ow water
    257      86    2   0.556400  2.206174e+01  1.780493e+01  2.792277e+01  # Hw water
    258      86    2   0.556400  2.329313e+01  1.722320e+01  2.726160e+01  # Hw water
    259      87    1  -1.112800  1.016239e+01  7.020544e+00  1.558510e+01  # Ow water
    260      87    2   0.556400  1.044528e+01  6.423463e+00  1.489250e+01  # Hw water
    261      87    2   0.556400  1.023458e+01  7.891750e+00  1.519521e+01  # Hw water
    262      88    1  -1.112800  9.873839e+00  1.710141e+01  1.136548e+01  # Ow water
    263      88    2   0.556400  1.065115e+01  1.720938e+01  1.081743e+01  # Hw water
    264      88    2   0.556400  1.020156e+01  1.716728e+01  1.226242e+01  # Hw water
    265      89    1  -1.112800  1.998465e+01  7.865593e+00  1.051211e+01  # Ow water
    266      89    2   0.556400  1.973746e+01  6.986448e+00  1.079887e+01  # Hw water
    267      89    2   0.556400  2.046704e+01  8.232855e+00  1.125282e+01  # Hw water
    268      90    1  -1.112800  2.649060e+01  8.301624e+00  2.623288e+01  # Ow water
    269      90    2   0.556400  2.737528e+01  7.970251e+00  2.607876e+01  # Hw water
    270      90    2   0.556400  2.662100e+01  9.120960e+00  2.671028e+01  # Hw water
    271      91    1  -1.112800  2.635597e+01  3.893323e+00  1.058103e+01  # Ow water
    272      91    2   0.556400  2.639080e+01  4.821859e+00  1.035117e+01  # Hw water
    273      91    2   0.556400  2.676670e+01  3.844210e+00  1.144423e+01  # Hw water
    274      92    1  -1.112800  2.031858e+01  2.279011e+01  1.042050e+01  # Ow water
    275      92    2   0.556400  2.109771e+01  2.318951e+01  1.080737e+01  # Hw water
    276      92    2   0.556400  2.025891e+01  2.317732e+01  9.547154e+00  # Hw water
    277      93    1  -1.112800  1.722604e+01  5.222712e+00  2.486778e+01  # Ow water
    278      93    2   0.556400  1.671954e+01  5.360755e+00  2.406739e+01  # Hw water
    279      93    2   0.556400  1.784381e+01  5.953535e+00  2.488989e+01  # Hw water
    280      94    1  -1.112800  1.777514e+01  3.931573e+00  1.477789e+01  # Ow water
    281      94    2   0.556400  1.814783e+01  3.550531e+00  1.398282e+01  # Hw water
    282      94    2   0.556400  1.841522e+01  3.733885e+00  1.546160e+01  # Hw water
    283      95    1  -1.112800  2.375768e+00  1.427994e+01  3.076534e+00  # Ow water
    284      95    2   0.556400  2.930709e+00  1.354010e+01  3.323304e+00  # Hw water
    285      95    2   0.556400  1.500000e+00  1.403251e+01  3.373244e+00  # Hw water
    286      96    1  -1.112800  3.106666e+01  6.840233e+00  3.019062e+01  # Ow water
    287      96    2   0.556400  3.100619e+01  7.238163e+00  2.932216e+01  # Hw water
    288      96    2   0.556400  3.099726e+01  5.899359e+00  3.002885e+01  # Hw water
    289      97    1  -1.112800  8.219214e+00  1.085439e+01  1.962121e+01  # Ow water
    290      97    2   0.556400  7.684406e+00  1.041157e+01  2.028009e+01  # Hw water
    291      97    2   0.556400  8.985218e+00  1.116562e+01  2.010350e+01  # Hw water
    292      98    1  -1.112800  2.138340e+01  8.532678e+00  4.945094e+00  # Ow water
    293      98    2   0.556400  2.142231e+01  8.479963e+00  5.900047e+00  # Hw water
    294      98    2   0.556400  2.227982e+01  8.358124e+00  4.658379e+00  # Hw water
    295      99    1  -1.112800  3.103346e+01  2.672671e+01  2.169671e+00  # Ow water
    296      99    2   0.556400  3.096559e+01  2.604605e+01  1.500105e+00  # Hw water
    297      99    2   0.556400  3.106596e+01  2.624686e+01  2.997267e+00  # Hw water
    298     100    1  -1.112800  2.171783e+01  1.919426e+01  1.948803e+01  # Ow water
    299     100    2   0.556400  2.124831e+01  1.872498e+01  2.017763e+01  # Hw water
    300     100    2   0.556400  2.201872e+01  2.000001e+01  1.990809e+01  # Hw water
    301     101    1  -1.112800  2.314014e+01  1.441920e+01  2.519028e+01  # Ow water
    302     101    2   0.556400  2.337161e+01  1.369054e+01  2.576622e+01  # Hw water
    303     101    2   0.556400  2.266000e+01  1.502670e+01  2.575298e+01  # Hw water
    304     102    1  -1.112800  2.054450e+01  8.321624e+00  2.127730e+01  # Ow water
    305     102    2   0.556400  2.125330e+01  7.896997e+00  2.079407e+01  # Hw water
    306     102    2   0.556400  2.029140e+01  9.064215e+00  2.072891e+01  # Hw water
    307     103    1  -1.112800  4.021672e+00  2.329228e+01  9.417993e+00  # Ow water
    308     103    2   0.556400  4.132385e+00  2.359104e+01  1.032061e+01  # Hw water
    309     103    2   0.556400  3.765256e+00  2.237363e+01  9.499006e+00  # Hw water
    310     104    1  -1.112800  3.082155e+01  2.639342e+01  2.393780e+01  # Ow water
    311     104    2   0.556400  3.105716e+01  2.611822e+01  2.482379e+01  # Hw water
    312     104    2   0.556400  3.104270e+01  2.564278e+01  2.338656e+01  # Hw water
    313     105    1  -1.112800  3.012945e+01  3.094627e+01  1.193345e+01  # Ow water
    314     105    2   0.556400  3.101136e+01  3.105510e+01  1.228929e+01  # Hw water
    315     105    2   0.556400  2.955043e+01  3.106682e+01  1.268607e+01  # Hw water
    316     106    1  -1.112800  9.608496e+00  1.546672e+01  8.019720e+00  # Ow water
    317     106    2   0.556400  9.213518e+00  1.559867e+01  7.157856e+00  # Hw water
    318     106    2   0.556400  9.890315e+00  1.634039e+01  8.290861e+00  # Hw water
    319     107    1  -1.112800  2.057522e+01  8.246526e+00  1.434628e+01  # Ow water
    320     107    2   0.556400  2.091761e+01  7.496128e+00  1.386059e+01  # Hw water
    321     107    2   0.556400  2.088783e+01  8.115866e+00  1.524151e+01  # Hw water
    322     108    1  -1.112800  1.929014e+01  2.117275e+01  1.777315e+01  # Ow water
    323     108    2   0.556400  1.904123e+01  2.209199e+01  1.786950e+01  # Hw water
    324     108    2   0.556400  1.987284e+01  2.100305e+01  1.851335e+01  # Hw water
    325     109    1  -1.112800  1.224446e+01  9.168477e+00  2.255995e+01  # Ow water
    326     109    2   0.556400  1.182719e+01  8.890087e+00  2.174471e+01  # Hw water
    327     109    2   0.556400  1.230246e+01  1.012111e+01  2.248674e+01  # Hw water
    328     110    1  -1.112800  3.095600e+01  2.444110e+00  2.748616e+01  # Ow water
    329     110    2   0.556400  3.105982e+01  2.818746e+00  2.836086e+01  # Hw water
    330     110    2   0.556400  3.104450e+01  1.500085e+00  2.761736e+01  # Hw water
    331     111    1  -1.112800  5.872926e+00  2.830208e+01  3.044703e+01  # Ow water
    332     111    2   0.556400  5.170497e+00  2.810468e+01  3.106659e+01  # Hw water
    333     111    2   0.556400  6.649762e+00  2.841838e+01  3.099405e+01  # Hw water
    334     112    1  -1.112800  2.332518e+00  2.847261e+01  5.461360e+00  # Ow water
    335     112    2   0.556400  1.501191e+00  2.844355e+01  5.934943e+00  # Hw water
    336     112    2   0.556400  2.087030e+00  2.838721e+01  4.540127e+00  # Hw water
    337     113    1  -1.112800  1.716773e+01  1.593226e+00  2.551699e+01  # Ow water
    338     113    2   0.556400  1.737729e+01  2.475383e+00  2.521022e+01  # Hw water
    339     113    2   0.556400  1.622872e+01  1.500019e+00  2.535632e+01  # Hw water
    340     114    1  -1.112800  4.452790e+00  1.967231e+01  2.149116e+01  # Ow water
    341     114    2   0.556400  3.920061e+00  2.035411e+01  2.108180e+01  # Hw water
    342     114    2   0.556400  4.054436e+00  1.885106e+01  2.120291e+01  # Hw water
    343     115    1  -1.112800  1.865397e+00  2.591230e+01  1.999998e+01  # Ow water
    344     115    2   0.556400  1.500245e+00  2.514158e+01  2.043460e+01  # Hw water
    345     115    2   0.556400  2.797594e+00  2.589065e+01  2.021625e+01  # Hw water
    346     116    1  -1.112800  2.812560e+01  3.000164e+01  2.767079e+01  # Ow water