LAMMPS (22 Aug 2018)
####################################################
# Transport properties of NaCl in water
#  at 298 K and 1 atm.
#################### SETTING UP ####################
units real
dimension 3
newton on
boundary p p p
atom_style full

#################### VARIABLES ####################
variable Temp equal 298       # Temperature in K
variable Pres equal 1.0       # Pressure in atm.

variable RandomSeed equal 600 # The random seed for velocity
variable tstep equal 2.0      # 2fs
variable Ninptpre equal 10000 # Pre-initialize the NPT ensemble (very small timesteps)
variable Ninpt equal 5000000    # Initialize the NPT ensemble
variable Npnpt equal 5000000  # Production in the NPT ensemble (volume)
variable Ninvtpre equal 10000 # Pre-initialize the NVT ensemble (very small timesteps)
variable Ninvt equal 100000   # Initialize the NVT ensemble
variable Npnvt equal 100000   # Production in the NVT ensemble (energy)
variable Nrun equal 100000000   # production in the NVE ensemble
variable Nf equal 10000       # Nfreq (fix ave/time and thermo)
variable Ne equal  10         # Nevery (fix ave/time)
variable Nr equal ${Nf}/${Ne} # Nrepeat (fix ave/time)
variable Nr equal 10000/${Ne} 
variable Nr equal 10000/10 
variable NBR equal ${Npnpt}/50 # Block averaging for density (NPT)
variable NBR equal 5000000/50 
variable Nd equal ${Npnvt}/10 # Frequency of outputting positions of atoms in the NVT ensemble
variable Nd equal 100000/10 

variable nb equal 10          # Number of blocks (fix ordern)
variable nbe equal 20         # Number of block elements (fix ordern)
variable Nvisc equal 5        # Nevery for viscosity (fix ordern: sample data at (Nvisc*2))
variable Ncond equal 5        # Nevery for Tconductivity (fix ordern: sample data at (Ncond*2))
variable Ndiff equal 1000     # Nevery for diffusivity (fix ordern: sample data at (Ndiff))
variable Nwrit equal 100000   # Nwrite for transport properties (fix ordern: write every (Nwrit))

variable Nrdfe equal 100      # Nevery for RDF (fix ave/time)
variable Nrdfw equal 1000     # Nwrite for RDF (compute rdf/ext: write every (Nrdfw*Nrdfe))
variable binnum equal 2000    # Number of bins for RDF

#################### ATOM DEFINITION and FORCEFIELD ####################
read_data ./data.lmp                     # read the positions
  orthogonal box = (0 0 0) to (32.8974 32.8974 32.8974)
  4 by 4 by 8 MPI processor grid
  reading atoms ...
  3072 atoms
  scanning bonds ...
  2 = max bonds/atom
  scanning angles ...
  1 = max angles/atom
  reading bonds ...
  2000 bonds
  reading angles ...
  1000 angles
  2 = max # of 1-2 neighbors
  1 = max # of 1-3 neighbors
  1 = max # of 1-4 neighbors
  2 = max # of special neighbors
include ./forcefield.data                  # read the force field
#--------INTERMOLECULAR POTENTIAL -------------------#
# ---------------Developed for NaCl in water (tip4p/2005) system-----

mass 1 15.9994 # Ow
mass 2 1.00794 # Hw
mass 3 22.9897 # Na
mass 4 35.4527 # Cl

pair_style lj/cut/tip4p/long 1 2 1 1 0.1546 10.0

kspace_style pppm/tip4p 1.0e-5
pair_modify tail yes # ATC i

#-----------------Combinations----------------------------
# atomtype atomtype epsilon sigma

pair_coeff 1 1 0.1851 3.1589     # Ow-Ow
pair_coeff 1 2 0.0000 0.0000     # Ow-Hw
pair_coeff 1 3 0.1895 2.38725     # Ow-Na
pair_coeff 1 4 0.0148 4.07631     # Ow-Cl

pair_coeff 2 2 0.0000 0.0000     # Hw-Hw
pair_coeff 2 3 0.0000 0.0000     # Hw-Na
pair_coeff 2 4 0.0000 0.0000     # Hw-Cl

pair_coeff 3 3 0.3517 2.21737     # Na-Na
pair_coeff 3 4 0.3437 2.58012     # Na-Cl

pair_coeff 4 4 0.01837 4.69906     # Cl-Cl

bond_style  harmonic
bond_coeff 1 1000 0.9572          # Ow-Hw

angle_style harmonic
angle_coeff 1 100 104.52          # H-O-H

#dihedral_style none
#improper_style none

set type 1 charge -1.1128        # O
  1000 settings made for charge
set type 2 charge +0.5564        # OH
  2000 settings made for charge
set type 3 charge +0.7500        # Na
  36 settings made for charge
set type 4 charge -0.7500        # Cl
  36 settings made for charge


#################### INITIALIZATION ####################
# groups for the central atoms of water (O)
group wat type 1      # The Oxygen of WATER molecules
1000 atoms in group wat
group Na type 3
36 atoms in group Na
group Cl type 4
36 atoms in group Cl

# neigbor lists
neighbor 2.0 bin
neigh_modify every 1 delay 0 check yes

# velocity-Verlet integrator
run_style verlet

# minimizing the system using the conjugate gradient method
min_style cg
min_modify dmax 0.05
minimize 1.0e-6 1.0e-6 1000 10000
PPPM initialization ...
  extracting TIP4P info from pair style
  using 12-bit tables for long-range coulomb (../kspace.cpp:321)
  G vector (1/distance) = 0.308492
  grid = 30 30 30
  stencil order = 5
  estimated absolute RMS force accuracy = 0.00396779
  estimated relative force accuracy = 1.19489e-05
  using double precision FFTs
  3d grid and FFT values/proc = 2475 256
Neighbor list info ...
  update every 1 steps, delay 0 steps, check yes
  max neighbors/atom: 2000, page size: 100000
  master list distance cutoff = 12.3092
  ghost atom cutoff = 12.3092
  binsize = 6.1546, bins = 6 6 6
  1 neighbor lists, perpetual/occasional/extra = 1 0 0
  (1) pair lj/cut/tip4p/long, perpetual
      attributes: half, newton on
      pair build: half/bin/newton
      stencil: half/bin/3d/newton
      bin: standard
Per MPI rank memory allocation (min/avg/max) = 8.191 | 8.258 | 8.457 Mbytes
Step Temp E_pair E_mol TotEng Press 
       0            0   -623.99644 3.2833764e-05   -623.99641    16855.974 
    1000            0   -18283.155    376.61467    -17906.54    -4511.467 
Loop time of 1.42417 on 128 procs for 1000 steps with 3072 atoms

99.2% CPU use with 128 MPI tasks x no OpenMP threads

Minimization stats:
  Stopping criterion = max iterations
  Energy initial, next-to-last, final = 
        -623.996407629     -17906.4343711     -17906.5404254
  Force two-norm initial, final = 1275.57 13.7842
  Force max component initial, final = 165.194 4.71147
  Final line search alpha, max atom move = 0.0018373 0.00865637
  Iterations, force evaluations = 1000 1800

MPI task timing breakdown:
Section |  min time  |  avg time  |  max time  |%varavg| %total
---------------------------------------------------------------
Pair    | 0.18615    | 0.36439    | 0.54821    |  12.1 | 25.59
Bond    | 0.0010333  | 0.0016535  | 0.0021737  |   0.5 |  0.12
Kspace  | 0.59306    | 0.78817    | 0.97179    |   8.3 | 55.34
Neigh   | 0.0071474  | 0.00766    | 0.00786    |   0.2 |  0.54
Comm    | 0.16092    | 0.18249    | 0.20428    |   2.5 | 12.81
Output  | 8.7504e-05 | 9.0069e-05 | 9.2703e-05 |   0.0 |  0.01
Modify  | 0          | 0          | 0          |   0.0 |  0.00
Other   |            | 0.07972    |            |       |  5.60

Nlocal:    24 ave 33 max 10 min
Histogram: 2 1 5 11 12 20 40 20 13 4
Nghost:    2650.94 ave 2708 max 2617 min
Histogram: 28 31 8 13 5 9 2 15 12 5
Neighs:    8119.74 ave 12309 max 2860 min
Histogram: 3 2 6 17 13 36 23 17 8 3

Total # of neighbors = 1039327
Ave neighs/atom = 338.323
Ave special neighs/atom = 1.95312
Neighbor list builds = 22
Dangerous builds = 0
reset_timestep 0

# initializing velocities
velocity all create ${Temp} ${RandomSeed}
velocity all create 298 ${RandomSeed}
velocity all create 298 600

# rate of writing thermal properties to the log file
thermo ${Nf}
thermo 10000

#################### 1) Initialize the NPT ensemble ####################
# applying the shake algorithm for rigid molecules and the NPT solver
fix constrain all shake 1.0e-6 1000 0 b 1 a 1
  0 = # of size 2 clusters
  0 = # of size 3 clusters
  0 = # of size 4 clusters
  1000 = # of frozen angles
fix integrate all npt temp ${Temp} ${Temp} 10.0 iso ${Pres} ${Pres} 100.0
fix integrate all npt temp 298 ${Temp} 10.0 iso ${Pres} ${Pres} 100.0
fix integrate all npt temp 298 298 10.0 iso ${Pres} ${Pres} 100.0
fix integrate all npt temp 298 298 10.0 iso 1 ${Pres} 100.0
fix integrate all npt temp 298 298 10.0 iso 1 1 100.0


# Initializing the whole system with very small timesteps in the NPT ensemble
timestep 0.001
run ${Ninptpre}
run 10000
PPPM initialization ...
  extracting TIP4P info from pair style
  using 12-bit tables for long-range coulomb (../kspace.cpp:321)
  G vector (1/distance) = 0.308492
  grid = 30 30 30
  stencil order = 5
  estimated absolute RMS force accuracy = 0.00396779
  estimated relative force accuracy = 1.19489e-05
  using double precision FFTs
  3d grid and FFT values/proc = 2475 256
Per MPI rank memory allocation (min/avg/max) = 7.941 | 8.108 | 8.208 Mbytes
Step Temp E_pair E_mol TotEng Press Volume 
       0    441.89184   -18283.155            0   -15555.243    96441.064    35602.788 
   10000    170.36708    -16647.16            0    -15595.44    1867.7985    35502.622 
Loop time of 9.27303 on 128 procs for 10000 steps with 3072 atoms

Performance: 0.093 ns/day, 257.584 hours/ns, 1078.396 timesteps/s
99.4% CPU use with 128 MPI tasks x no OpenMP threads

MPI task timing breakdown:
Section |  min time  |  avg time  |  max time  |%varavg| %total
---------------------------------------------------------------
Pair    | 0.65129    | 2.3823     | 3.5852     |  36.4 | 25.69
Bond    | 0.0009159  | 0.0011403  | 0.0019886  |   0.5 |  0.01
Kspace  | 3.3114     | 4.587      | 6.3308     |  26.3 | 49.47
Neigh   | 0          | 0          | 0          |   0.0 |  0.00
Comm    | 0.88642    | 1.0125     | 1.1583     |   6.3 | 10.92
Output  | 9.102e-05  | 9.3916e-05 | 9.7612e-05 |   0.0 |  0.00
Modify  | 0.94045    | 1.1394     | 1.2148     |   6.2 | 12.29
Other   |            | 0.1507     |            |       |  1.62

Nlocal:    24 ave 33 max 9 min
Histogram: 1 2 5 8 8 28 22 37 12 5
Nghost:    2650.75 ave 2707 max 2619 min
Histogram: 35 26 4 11 6 12 3 13 13 5
Neighs:    8120.13 ave 12363 max 2446 min
Histogram: 2 1 5 17 12 37 23 20 8 3

Total # of neighbors = 1039377
Ave neighs/atom = 338.339
Ave special neighs/atom = 1.95312
Neighbor list builds = 0
Dangerous builds = 0
timestep 0.01
run ${Ninptpre}
run 10000
PPPM initialization ...
  extracting TIP4P info from pair style
  using 12-bit tables for long-range coulomb (../kspace.cpp:321)
  G vector (1/distance) = 0.30856
  grid = 30 30 30
  stencil order = 5
  estimated absolute RMS force accuracy = 0.00395669
  estimated relative force accuracy = 1.19154e-05
  using double precision FFTs
  3d grid and FFT values/proc = 2475 256
Per MPI rank memory allocation (min/avg/max) = 7.941 | 8.112 | 8.208 Mbytes
Step Temp E_pair E_mol TotEng Press Volume 
   10000    170.36708    -16647.16            0    -15595.44   -5863.4553    35502.622 
   20000    303.37101   -15428.338            0   -13555.551   -1043.4317     35969.47 
Loop time of 9.02921 on 128 procs for 10000 steps with 3072 atoms

Performance: 0.957 ns/day, 25.081 hours/ns, 1107.517 timesteps/s
99.4% CPU use with 128 MPI tasks x no OpenMP threads

MPI task timing breakdown:
Section |  min time  |  avg time  |  max time  |%varavg| %total
---------------------------------------------------------------
Pair    | 0.73987    | 2.3504     | 3.6408     |  34.7 | 26.03
Bond    | 0.00090762 | 0.0011361  | 0.002068   |   0.4 |  0.01
Kspace  | 3.1538     | 4.4839     | 6.1012     |  25.1 | 49.66
Neigh   | 0.0013091  | 0.0013537  | 0.0013885  |   0.0 |  0.01
Comm    | 0.81589    | 0.95202    | 1.0887     |   6.7 | 10.54
Output  | 9.4877e-05 | 9.6626e-05 | 9.9485e-05 |   0.0 |  0.00
Modify  | 0.92143    | 1.1082     | 1.185      |   6.1 | 12.27
Other   |            | 0.1321     |            |       |  1.46

Nlocal:    24 ave 33 max 9 min
Histogram: 1 1 5 5 11 34 18 38 8 7
Nghost:    2623.43 ave 2690 max 2588 min
Histogram: 21 35 15 14 11 2 11 5 9 5
Neighs:    8006.82 ave 13446 max 2512 min
Histogram: 1 6 4 18 33 31 23 11 0 1

Total # of neighbors = 1024873
Ave neighs/atom = 333.618
Ave special neighs/atom = 1.95312
Neighbor list builds = 4
Dangerous builds = 0
timestep 0.1
run ${Ninptpre}
run 10000
PPPM initialization ...
  extracting TIP4P info from pair style
  using 12-bit tables for long-range coulomb (../kspace.cpp:321)
  G vector (1/distance) = 0.308244
  grid = 30 30 30
  stencil order = 5
  estimated absolute RMS force accuracy = 0.00400845
  estimated relative force accuracy = 1.20713e-05
  using double precision FFTs
  3d grid and FFT values/proc = 2475 256
Per MPI rank memory allocation (min/avg/max) = 7.941 | 8.12 | 8.208 Mbytes
Step Temp E_pair E_mol TotEng Press Volume 
   20000    303.37101   -15428.337            0    -13555.55   -16353.108     35969.47 
   30000    299.17218   -15544.295            0   -13697.428    549.82716    31709.055 
Loop time of 10.1414 on 128 procs for 10000 steps with 3072 atoms

Performance: 8.520 ns/day, 2.817 hours/ns, 986.057 timesteps/s
99.4% CPU use with 128 MPI tasks x no OpenMP threads

MPI task timing breakdown:
Section |  min time  |  avg time  |  max time  |%varavg| %total
---------------------------------------------------------------
Pair    | 1.6549     | 2.6153     | 3.8141     |  25.7 | 25.79
Bond    | 0.00095354 | 0.0011572  | 0.0020864  |   0.4 |  0.01
Kspace  | 3.8921     | 5.0987     | 6.0593     |  18.3 | 50.28
Neigh   | 0.014871   | 0.015186   | 0.015543   |   0.2 |  0.15
Comm    | 0.95744    | 1.0724     | 1.196      |   5.3 | 10.57
Output  | 9.8133e-05 | 9.9864e-05 | 0.00010344 |   0.0 |  0.00
Modify  | 0.99112    | 1.1908     | 1.2766     |   6.2 | 11.74
Other   |            | 0.1477     |            |       |  1.46

Nlocal:    24 ave 32 max 11 min
Histogram: 1 0 2 5 21 29 24 30 12 4
Nghost:    2897.26 ave 2932 max 2861 min
Histogram: 5 3 12 22 18 22 21 10 13 2
Neighs:    9030.25 ave 12817 max 3752 min
Histogram: 1 1 4 10 21 37 21 17 13 3

Total # of neighbors = 1155872
Ave neighs/atom = 376.26
Ave special neighs/atom = 1.95312
Neighbor list builds = 49
Dangerous builds = 0
timestep 0.2
run ${Ninptpre}
run 10000
PPPM initialization ...
  extracting TIP4P info from pair style
  using 12-bit tables for long-range coulomb (../kspace.cpp:321)
  G vector (1/distance) = 0.311281
  grid = 30 30 30
  stencil order = 5
  estimated absolute RMS force accuracy = 0.00353648
  estimated relative force accuracy = 1.065e-05
  using double precision FFTs
  3d grid and FFT values/proc = 2475 256
Per MPI rank memory allocation (min/avg/max) = 7.951 | 8.184 | 8.218 Mbytes
Step Temp E_pair E_mol TotEng Press Volume 
   30000    299.17218   -15544.298            0   -13697.431   -353.03443    31709.055 
   40000     295.9873   -15736.067            0   -13908.861   -971.75137    31260.744 
Loop time of 9.44237 on 128 procs for 10000 steps with 3072 atoms

Performance: 18.300 ns/day, 1.311 hours/ns, 1059.056 timesteps/s
99.4% CPU use with 128 MPI tasks x no OpenMP threads

MPI task timing breakdown:
Section |  min time  |  avg time  |  max time  |%varavg| %total
---------------------------------------------------------------
Pair    | 1.925      | 2.7785     | 3.6944     |  22.4 | 29.43
Bond    | 0.00094138 | 0.0011555  | 0.0020684  |   0.5 |  0.01
Kspace  | 3.2997     | 4.2231     | 5.0518     |  18.1 | 44.73
Neigh   | 0.0301     | 0.031699   | 0.032211   |   0.3 |  0.34
Comm    | 0.97724    | 1.0859     | 1.1982     |   5.0 | 11.50
Output  | 8.6562e-05 | 8.7754e-05 | 9.121e-05  |   0.0 |  0.00
Modify  | 0.98105    | 1.176      | 1.26       |   6.2 | 12.45
Other   |            | 0.1459     |            |       |  1.55

Nlocal:    24 ave 34 max 16 min
Histogram: 1 10 15 23 21 34 17 6 0 1
Nghost:    2939.8 ave 2982 max 2874 min
Histogram: 1 1 8 5 14 28 32 21 14 4
Neighs:    9217.18 ave 12223 max 6055 min
Histogram: 6 5 9 23 19 21 18 9 12 6

Total # of neighbors = 1179799
Ave neighs/atom = 384.049
Ave special neighs/atom = 1.95312
Neighbor list builds = 97
Dangerous builds = 0
timestep 0.5
run ${Ninptpre}
run 10000
PPPM initialization ...
  extracting TIP4P info from pair style
  using 12-bit tables for long-range coulomb (../kspace.cpp:321)
  G vector (1/distance) = 0.311622
  grid = 30 30 30
  stencil order = 5
  estimated absolute RMS force accuracy = 0.00348689
  estimated relative force accuracy = 1.05007e-05
  using double precision FFTs
  3d grid and FFT values/proc = 2475 256
Per MPI rank memory allocation (min/avg/max) = 7.956 | 8.21 | 8.219 Mbytes
Step Temp E_pair E_mol TotEng Press Volume 
   40000     295.9873   -15736.066            0    -13908.86   -3512.6756    31260.744 
   50000    295.98588   -15767.032            0   -13939.835   -301.89677    30825.016 
Loop time of 10.1733 on 128 procs for 10000 steps with 3072 atoms

Performance: 42.464 ns/day, 0.565 hours/ns, 982.970 timesteps/s
99.4% CPU use with 128 MPI tasks x no OpenMP threads

MPI task timing breakdown:
Section |  min time  |  avg time  |  max time  |%varavg| %total
---------------------------------------------------------------
Pair    | 2.075      | 2.8387     | 3.7798     |  19.0 | 27.90
Bond    | 0.00096415 | 0.0011551  | 0.0020871  |   0.4 |  0.01
Kspace  | 3.7921     | 4.7029     | 5.4705     |  14.6 | 46.23
Neigh   | 0.076335   | 0.077939   | 0.079377   |   0.4 |  0.77
Comm    | 1.0256     | 1.1391     | 1.2959     |   5.5 | 11.20
Output  | 9.5889e-05 | 9.8813e-05 | 0.00011077 |   0.0 |  0.00
Modify  | 1.0581     | 1.26       | 1.352      |   6.1 | 12.39
Other   |            | 0.1533     |            |       |  1.51

Nlocal:    24 ave 31 max 17 min
Histogram: 3 3 21 21 12 30 12 15 4 7
Nghost:    2965.85 ave 2995 max 2934 min
Histogram: 4 7 16 15 13 18 23 15 15 2
Neighs:    9328.81 ave 14387 max 5813 min
Histogram: 3 9 22 27 36 12 13 5 0 1

Total # of neighbors = 1194088
Ave neighs/atom = 388.701
Ave special neighs/atom = 1.95312
Neighbor list builds = 245
Dangerous builds = 0
reset_timestep 0

# continuing the initialization with the final value of timestep
unfix integrate
fix integrate all npt temp ${Temp} ${Temp} 100.0 iso ${Pres} ${Pres} 1000.0
fix integrate all npt temp 298 ${Temp} 100.0 iso ${Pres} ${Pres} 1000.0
fix integrate all npt temp 298 298 100.0 iso ${Pres} ${Pres} 1000.0
fix integrate all npt temp 298 298 100.0 iso 1 ${Pres} 1000.0
fix integrate all npt temp 298 298 100.0 iso 1 1 1000.0
#fix integrate all rigid/npt/small molecule temp ${Temp} ${Temp} 100.0 iso ${Pres} ${Pres} 1000.0

timestep ${tstep}
timestep 2
run ${Ninpt}
run 5000000
PPPM initialization ...
  extracting TIP4P info from pair style
  using 12-bit tables for long-range coulomb (../kspace.cpp:321)
  G vector (1/distance) = 0.311957
  grid = 30 30 30
  stencil order = 5
  estimated absolute RMS force accuracy = 0.0034387
  estimated relative force accuracy = 1.03555e-05
  using double precision FFTs
  3d grid and FFT values/proc = 2475 256
Per MPI rank memory allocation (min/avg/max) = 8.201 | 8.212 | 8.219 Mbytes
Step Temp E_pair E_mol TotEng Press Volume 
       0    295.98588   -15767.032            0   -13939.835   -544.92425    30825.016 
   10000    297.82788   -15932.334            0   -14093.766    240.49377    31016.181 
   20000    301.49106   -15849.182            0       -13988   -44.882623     30922.38 
   30000    296.55698   -15756.306            0   -13925.583    253.90336    31397.927 
   40000    299.97358   -15778.812            0   -13926.998   -45.488418    31481.702 
   50000    308.55564   -15792.373            0    -13887.58    574.68086    31184.275 
   60000    296.57974   -15856.783            0   -14025.919   -288.42189    31516.428 
   70000    306.53959   -15692.048            0     -13799.7   -428.26412    31662.526 
   80000     293.3006   -15841.716            0   -14031.096     387.0718    31104.225 
   90000    303.94909   -15722.879            0   -13846.522    287.81916    31262.655 
  100000    294.80697   -15824.073            0   -14004.154    146.20204    31111.048 
  110000    295.50822   -15843.023            0   -14018.774    662.30262    30973.238 
  120000     288.2848    -15812.25            0   -14032.594   -785.13841    31113.767 
  130000    290.45413   -15789.837            0   -13996.789    62.926532    30878.629 
  140000    297.30488   -15812.806            0   -13977.466   -238.59632    30836.436 
  150000    300.55038   -15798.215            0    -13942.84    1097.5324    30687.733 
  160000    298.51284   -15795.611            0   -13952.814    727.65259    31286.729 
  170000    291.99666   -15780.201            0    -13977.63    181.76932    31124.648 
  180000    300.78933   -15818.433            0   -13961.583    -71.75069    31480.122 
  190000    295.48701    -15761.57            0   -13937.453     474.8563    31447.733 
  200000    294.19348   -15763.599            0   -13947.467    883.14782    31285.686 
  210000    296.16878   -15759.684            0   -13931.358   -94.784748    30717.847 
  220000    297.05845   -15765.786            0   -13931.967    793.20289    31025.094 
  230000    295.69825   -15810.836            0   -13985.414   -306.56168    30860.028 
  240000    295.12042   -15749.523            0   -13927.669   -365.31517    31314.647 
  250000    297.00797   -15675.333            0   -13841.826    834.39311    31037.918 
  260000    301.73423   -15771.415            0   -13908.732   -512.75879    31300.489 
  270000    292.42035   -15669.936            0    -13864.75   -396.41642    31089.066 
  280000    300.02924   -15740.239            0   -13888.081   -476.07775    31485.977 
  290000    298.60099   -15800.728            0   -13957.387   -191.11593    31075.052 
  300000     291.9143    -15729.08            0   -13927.018   -430.91702    31403.999 
  310000    292.82033   -15784.278            0   -13976.623   -164.15773    31187.422 
  320000    297.87256   -15746.352            0   -13907.508   -271.00176    30855.273 
  330000    289.94479   -15858.713            0   -14068.809    194.61449    30739.781 
  340000      311.718   -15796.857            0   -13872.542    519.76923    31110.924 
  350000    303.34938   -15778.144            0    -13905.49    100.03748    31252.603 
  360000    311.88384   -15859.089            0    -13933.75    460.77288    30664.694 
  370000    309.72064   -15793.264            0   -13881.278    -434.6025     31393.19 
  380000    291.49314   -15810.445            0   -14010.982     157.6244    31117.076 
  390000    296.02128   -15738.387            0   -13910.971   -427.24955    31394.062 
  400000    305.48439   -15905.277            0   -14019.443    417.44299    31677.876 
  410000    293.04344   -15781.376            0   -13972.343    397.16157     30792.53 
  420000    303.10489   -15740.276            0   -13869.131   -459.21817    31452.098 
  430000    291.68545   -15889.644            0   -14088.995   -92.436316    31092.308 
  440000     289.1394   -15836.828            0   -14051.896   -377.20195    31083.087 
  450000    296.41971    -15798.08            0   -13968.205   -12.295786    30934.866 
  460000    287.76566   -15829.877            0   -14053.425   -259.93608    31055.188 
  470000    301.56941   -15747.574            0   -13885.909   -757.63156    31589.211 
  480000    290.47333   -15792.438            0   -13999.271    577.96011    30902.686 
  490000    288.52728   -15642.328            0   -13861.175   -501.90618    31472.319 
  500000    296.84177   -15812.991            0    -13980.51   -140.56387    31183.578 
  510000    298.43988   -15884.596            0    -14042.25    -646.2319    31163.235 
  520000    301.71757   -15746.738            0   -13884.157   -301.09322     31540.42 
  530000    296.86539   -15798.486            0   -13965.859    468.34783    30706.154 
  540000    296.61492   -15752.357            0   -13921.277   -39.289783     31257.65 
  550000    305.53218   -15756.222            0   -13870.093    333.94682    31339.915 
  560000    308.46483   -15742.336            0   -13838.104   -210.80839    31041.216 
  570000    293.92835   -15744.937            0   -13930.441    322.89547    31090.774 
  580000    297.39439    -15779.56            0   -13943.668     739.5627    31581.382 
  590000    294.01581   -15760.017            0   -13944.982    376.09369    30940.391 
  600000    301.74097   -15862.042            0   -13999.318    20.546982    31069.692 
  610000    307.48553   -15811.998            0    -13913.81   -77.424823    31248.249 
  620000     296.3521   -15811.376            0   -13981.918    420.46314    31092.264 
  630000    296.16382    -15838.23            0   -14009.935    281.15689    30820.343 
  640000    301.05334   -15724.605            0   -13866.125    352.75067    31246.403 
  650000    296.18274   -15811.738            0   -13983.325    72.057786    31311.201 
  660000    300.65802   -15819.552            0   -13963.513    563.40106    31316.165 
  670000    298.80286   -15756.702            0   -13912.114    133.10897    31085.284 
  680000    292.90682   -15923.371            0   -14115.182    712.19615    31168.338 
  690000    312.18054   -15794.172            0   -13867.001    358.28123    31120.077 
  700000    296.89219   -15808.891            0   -13976.099    337.78278    31188.107 
  710000    291.08251   -15843.199            0   -14046.271    65.011921    31146.709 
  720000    294.69861   -15733.408            0   -13914.157    67.732377    31176.447 
  730000    297.16062   -15762.442            0   -13927.993    88.194666    31159.947 
  740000    297.76636   -15735.589            0     -13897.4    381.53278    31322.367 
  750000    306.46828   -15720.969            0   -13829.062    560.34597    31095.495 
  760000    305.21796   -15735.768            0   -13851.579   -414.65961    31492.048 
  770000    299.51533    -15842.02            0   -13993.035    401.48287    30986.875 
  780000    296.35661   -15790.151            0   -13960.665    1094.0229    30776.594 
  790000    306.06926   -15800.382            0   -13910.937    -313.2519    31123.625 
  800000     299.4284   -15704.706            0   -13856.257    606.69825    31199.226 
  810000      295.249   -15745.976            0   -13923.328    456.33793    31123.107 
  820000    290.99203   -15912.049            0   -14115.681   -90.966375    31345.742 
  830000    298.18134   -15818.321            0    -13977.57    554.25533    31025.419 
  840000    291.61287   -15807.509            0   -14007.307   -178.55801    31512.168 
  850000    302.23986   -15769.498            0   -13903.694    311.14188    30823.197 
  860000    301.20157   -15760.372            0   -13900.977   -881.00417    31670.886 
  870000    301.91086   -15751.883            0    -13888.11     94.16298    31428.529 
  880000    300.58727   -15777.716            0   -13922.114   -22.401667    31096.764 
  890000    291.19136   -15850.961            0   -14053.362   -76.378336    30942.687 
  900000    292.52625   -15774.423            0   -13968.583    501.08941    31069.509 
  910000    296.07095   -15820.355            0   -13992.632   -642.60047     31625.07 
  920000    309.26497    -15816.21            0   -13907.038   -86.420597    31381.299 
  930000    303.41385   -15754.793            0   -13881.741     169.9077    31300.975 
  940000    289.14653   -15818.861            0   -14033.885   -211.39483    31180.874 
  950000    295.93806   -15754.363            0   -13927.461    506.32471    31023.407 
  960000    296.60005   -15813.406            0   -13982.417     559.4743    31138.272 
  970000    299.40911   -15721.527            0   -13873.198    42.851856    31352.003 
  980000    289.65159   -15749.516            0   -13961.423    545.67906    31117.451 
  990000    303.38688   -15760.141            0   -13887.255   -205.78557     31402.37 
 1000000    302.70656   -15763.267            0   -13894.582    690.83618    30604.581 
 1010000    298.41045   -15774.106            0   -13931.942   -271.04229    31276.971 
 1020000    308.87442   -15842.688            0   -13935.926   -160.06264     31387.58 
 1030000    290.54335   -15841.173            0   -14047.574   -216.14074    31103.231 
 1040000    301.21871   -15785.749            0   -13926.249    658.84501    31131.593 
 1050000    308.20648   -15736.288            0    -13833.65   -593.26728    31516.869 
 1060000    297.20658   -15748.933            0     -13914.2   -310.47425    31253.761 
 1070000    294.86898   -15791.916            0   -13971.614   -729.88531    31782.432 
 1080000    288.07803   -15706.472            0   -13928.092    20.105526    30997.682 
 1090000    293.42882   -15787.738            0   -13976.327    105.99741    31096.237 
 1100000    295.45254   -15759.344            0   -13935.439   -77.864185    31272.018 
 1110000    292.72184   -15770.495            0   -13963.447    432.14251    31342.065 
 1120000    304.38974   -15807.292            0   -13928.216    355.97879    31358.883 
 1130000    289.70636   -15899.821            0   -14111.389   -881.17194     31459.95 
 1140000    301.98454   -15821.625            0   -13957.397    927.66177    31053.926 
 1150000      292.667    -15749.97            0   -13943.261    -340.5117     31480.61 
 1160000    299.03605   -15785.588            0   -13939.561    650.54956    30838.241 
 1170000    291.57466   -15831.052            0   -14031.087    78.550423    30640.915 
 1180000     295.0979   -15710.219            0   -13888.503   -105.41297    31551.595 
 1190000    304.19005   -15700.761            0   -13822.917    536.81299    31346.717 
 1200000    295.11425   -15691.884            0   -13870.068    229.38353    30921.815 
 1210000    300.89685   -15788.884            0   -13931.371    105.28141    31091.623 
 1220000    302.38659   -15728.586            0   -13861.875    783.11252     31390.14 
 1230000    300.44848   -15785.361            0   -13930.615   -101.68347    31077.957 
 1240000    295.63324   -15774.158            0   -13949.138    223.35217    31132.203 
 1250000    289.84672   -15796.269            0   -14006.971    674.00363    31343.035 
 1260000     293.1233   -15704.566            0    -13895.04   -584.75006    31500.337 
 1270000    302.48272   -15737.516            0   -13870.212   -586.32821    31411.926 
 1280000    298.30869   -15706.325            0   -13864.788   -1032.5915    31307.773 
 1290000    298.27661   -15858.996            0   -14017.658    505.09747    31412.277 
 1300000    298.49585    -15777.66            0   -13934.968   -199.20779    31255.827 
 1310000    294.36684   -15885.013            0    -14067.81   -381.01254     31386.72 
 1320000     291.9148   -15864.065            0       -14062    516.94341    31102.281 
 1330000    303.00309   -15847.507            0   -13976.991    322.51982    30839.189 
 1340000    278.15849   -15884.797            0   -14167.653    358.06575    30758.664 
 1350000     300.2411   -15834.721            0   -13981.255     151.0764    30887.001 
 1360000    305.67877   -15712.808            0   -13825.774   -128.35702    31267.197 
 1370000    298.56233   -15793.003            0   -13949.901   -527.35053    31441.207 
 1380000    284.83254   -15656.638            0   -13898.294    411.81565    31276.157 
 1390000    292.95837   -15887.555            0   -14079.047   -50.319605     31039.16 
 1400000    306.83851   -15763.931            0   -13869.738    339.56607    31195.772 
 1410000    299.28304   -15800.272            0   -13952.721   -24.275951    31536.895 
 1420000    296.11635   -15779.418            0   -13951.415    82.852106    31205.619 
 1430000    289.94336   -15736.167            0   -13946.272    1000.0208    31507.331 
 1440000    302.00321   -15873.932            0   -14009.589    -204.1947    30717.006 
 1450000    307.08511    -15825.83            0   -13930.114    82.593324    30795.635 
 1460000    310.02181   -15810.847            0   -13897.003    51.053074    31365.343 
 1470000    292.63812   -15657.827            0   -13851.297   -334.06369    31289.815 
 1480000    297.66999   -15745.803            0   -13908.209    186.45698    31186.657 
 1490000    300.52916   -15804.168            0   -13948.924   -12.951122    30938.973 
 1500000    293.36112   -15712.365            0   -13901.371    111.30787    31330.005 
 1510000    288.22708   -15702.061            0   -13922.761    7.7374807    31298.211 
 1520000    305.79781   -15735.447            0   -13847.678    388.44493    31349.698 
 1530000    294.32058   -15764.269            0   -13947.352    410.56488    31098.192 
 1540000    296.38931   -15796.398            0    -13966.71    87.788104    31043.256 
 1550000    298.54469   -15775.283            0   -13932.289   -31.664953    31149.836 
 1560000    294.80047   -15771.016            0   -13951.136    85.567046    31251.152 
 1570000    297.99159   -15758.917            0   -13919.339   -382.59809    31273.441 
 1580000    297.82915   -15772.175            0   -13933.599   -92.262205    31288.959 
 1590000     300.7938   -15728.527            0   -13871.649   -124.11502    31265.095 
 1600000    292.28878   -15746.176            0   -13941.802   -121.72438    31162.391 
 1610000    290.65008   -15765.223            0   -13970.965    454.92609    31396.996 
 1620000    307.96598   -15792.209            0   -13891.055    322.98679    30997.959 
 1630000     293.8685    -15831.31            0   -14017.184   -683.74158    31881.877 
 1640000    305.77919   -15872.541            0   -13984.887    119.86111    31523.805 
 1650000    286.55545   -15791.529            0   -14022.549    539.21778     31120.34 
 1660000    305.38225   -15782.215            0   -13897.012    276.43217    31413.498 
 1670000    296.13898   -15899.896            0   -14071.753   -764.56228    31359.744 
 1680000    296.87567   -15832.214            0   -13999.524    -205.1094    30854.865 
 1690000    302.58099   -15791.227            0   -13923.317   -244.70696    31274.472 
 1700000     296.6067   -15813.631            0   -13982.601   -724.10728    31377.752 
 1710000    302.83487   -15732.447            0   -13862.969    875.52515    31197.276 
 1720000    295.82246    -15782.73            0   -13956.542   -285.51599    31265.421 
 1730000    290.07525   -15761.298            0   -13970.589    335.99984    31092.267 
 1740000    295.74618   -15757.528            0   -13931.811   -41.005713    31387.722 
 1750000    298.76886   -15834.028            0   -13989.651    421.09171    31026.129 
 1760000     303.2316   -15874.573            0   -14002.646    146.61556    31366.079 
 1770000     305.0108   -15873.447            0   -13990.537     596.5072    30792.579 
 1780000    301.36684    -15666.13            0   -13805.714   -162.22553    30947.752 
 1790000    302.22896    -15710.05            0   -13844.313   -62.082626    31319.457 
 1800000    284.48742   -15755.513            0   -13999.299   -154.44657    31403.942 
 1810000    294.58173   -15809.952            0   -13991.423   -164.55347     31412.42 
 1820000    298.39733   -15797.005            0   -13954.921   -252.89754    31255.591 
 1830000    302.18275   -15787.354            0   -13921.903   -473.02617    31441.849 
 1840000    294.58857    -15807.63            0   -13989.059    13.248152    30975.162 
 1850000    301.19096    -15868.26            0    -14008.93     973.1511    30934.211 
 1860000    305.69866   -15749.248            0   -13862.091   -7.2985418    31606.851 
 1870000    294.01153   -15819.044            0   -14004.035    714.85024    30732.733 
 1880000    309.80785   -15767.343            0   -13854.819   -707.81602    30986.653 
 1890000    303.19403   -15910.558            0   -14038.863    1016.6341    31495.964 
 1900000    295.09537   -15822.229            0   -14000.529   -85.197628    31209.287 
 1910000    303.43798   -15862.738            0   -13989.537    129.39913    31150.515 
 1920000    293.64965   -15759.352            0   -13946.578   -704.85566     31661.11 
 1930000      299.505   -15827.018            0   -13978.097   -42.201298    31352.282 
 1940000    299.25781   -15772.967            0   -13925.572    69.616557    31557.786 
 1950000    296.94401   -15834.314            0   -14001.202    551.08011    30807.151 
 1960000    298.96816   -15651.118            0    -13805.51   -198.24922    31157.817 
 1970000    298.26006    -15746.46            0   -13905.223   -721.49847     31516.93 
 1980000    290.67931    -15681.13            0   -13886.692   -480.68026    31697.067 
 1990000    299.27804   -15704.971            0   -13857.451   -639.13434     31660.61 
 2000000    304.86879   -15716.474            0   -13834.441    1292.2217      30874.5 
 2010000    300.33333    -15864.58            0   -14010.545    201.14085    31228.122 
 2020000    302.41806   -15727.334            0    -13860.43    360.37662    31573.361 
 2030000    299.64658    -15769.96            0   -13920.164   -131.68902     30789.75 
 2040000    293.58374   -15922.325            0   -14109.957    505.05819    31065.985 
 2050000     297.3684   -15821.698            0   -13985.966    45.083668    31556.205 
 2060000    307.29542   -15770.392            0   -13873.378    159.81956    31158.076 
 2070000     294.1436   -15718.514            0    -13902.69   -131.08576    31392.613 
 2080000    303.49584   -15767.647            0   -13894.089   -435.28751    31523.933 
 2090000    296.52734    -15751.54            0       -13921     155.7848    31342.171 
 2100000    307.64316   -15652.366            0   -13753.205   -45.384334    31337.515 
 2110000    293.08912   -15774.093            0   -13964.778    337.43659    30915.657 
 2120000    308.24413   -15891.586            0   -13988.716    225.84738     31424.54 
 2130000    299.76297   -15820.018            0   -13969.504   -718.70637    31185.686 
 2140000    290.83914    -15850.45            0   -14055.025   -752.86528    31437.173 
 2150000    293.65599   -15845.129            0   -14032.315    724.08162    30959.267 
 2160000    288.43304    -15797.92            0   -14017.349   -750.24409    31075.937 
 2170000     290.7114   -15817.321            0   -14022.684   -653.20597    31354.604 
 2180000    296.70255   -15688.712            0    -13857.09    318.31315    31187.612 
 2190000    301.17511   -15779.515            0   -13920.283   -98.198973    31248.259 
 2200000    301.53463   -15748.882            0   -13887.431    139.73359    31287.727 
 2210000    297.51438    -15758.81            0   -13922.177   -334.73594    31478.532 
 2220000    305.57498   -15736.864            0   -13850.471   -88.123022    31355.562 
 2230000    298.76413   -15762.596            0   -13918.248    740.93567    30863.817 
 2240000    310.33258    -15788.07            0   -13872.307    272.43192    31752.536 
 2250000    302.40947   -15678.759            0   -13811.908    349.25916    31216.732 
 2260000    301.89181   -15779.688            0   -13916.032   -791.38649    31396.165 
 2270000    303.52429   -15761.341            0   -13887.608    606.25431    31141.217 
 2280000    295.50241   -15804.296            0   -13980.083   -378.83402    31134.242 
 2290000    301.15526   -15716.524            0   -13857.415    215.75187    31431.581 
 2300000    297.23239   -15780.858            0   -13945.966   -469.49631    31617.266 
 2310000    300.94263   -15744.049            0   -13886.253    750.94545    31157.335 
 2320000     300.5086   -15784.144            0   -13929.027   -822.80557    31524.707 
 2330000    295.59414   -15757.318            0   -13932.539   -461.56439    31391.966 
 2340000    302.76448   -15717.937            0   -13848.893   -618.62622     32015.71 
 2350000    298.59697   -15738.501            0   -13895.185    341.31686    31023.705 
 2360000     297.8415   -15766.342            0    -13927.69    1191.6108    31472.269 
 2370000    294.31875    -15671.97            0   -13855.065   -525.72204    31236.177 
 2380000    286.15495   -15719.789            0   -13953.281    374.92793    30685.863 
 2390000    303.12787   -15709.967            0    -13838.68    407.84629    31310.699 
 2400000    306.61773   -15825.437            0   -13932.607    692.99882    31097.995 
 2410000    299.73564   -15833.725            0    -13983.38   -232.22554    31486.645 
 2420000    291.35737   -15853.058            0   -14054.434   -230.19247    30927.213 
 2430000    295.02443     -15737.3            0   -13916.038    769.69262     30913.98 
 2440000    297.20555   -15678.636            0   -13843.909   -439.26862    31712.006 
 2450000    308.05478    -15848.84            0   -13947.138    738.80299    31185.361 
 2460000     297.5822   -15791.622            0    -13954.57    121.27133    31242.231 
 2470000     298.0727   -15796.501            0   -13956.421   -316.87998    31412.236 
 2480000    302.81849   -15752.197            0    -13882.82   -273.24229    31512.009 
 2490000    296.14338   -15780.377            0   -13952.207    620.66187    31367.189 
 2500000    302.27464   -15779.768            0   -13913.749    177.14183    31258.152 
 2510000    294.13043   -15795.068            0   -13979.325    39.471563    31475.228 
 2520000    298.07631   -15868.667            0   -14028.565   -529.69951    31067.354 
 2530000    294.81558   -15700.883            0   -13880.911   -260.80079    31726.422 
 2540000    289.71638    -15864.81            0   -14076.316    398.50638    31024.147 
 2550000    283.89771   -15779.837            0   -14027.263    435.32797    31029.484 
 2560000     295.1891   -15746.646            0   -13924.368    696.70203    30882.412 
 2570000    303.52583   -15705.817            0   -13832.074   -703.46447    31559.058 
 2580000    296.12229   -15804.563            0   -13976.524   -560.87141    30764.918 
 2590000    290.45343   -15855.374            0    -14062.33    188.92269    30927.536 
 2600000    297.98906   -15687.272            0   -13847.709   -987.10143    31596.972 
 2610000    296.03269   -15753.716            0    -13926.23    133.77234    31231.257 
 2620000    295.69036    -15803.58            0   -13978.208    425.99106    31158.924 
 2630000    310.95996   -15634.463            0   -13714.827   -1437.4859    31742.652 
 2640000    305.34755   -15784.728            0   -13899.739   -253.98913    31284.957 
 2650000    302.77912   -15760.836            0   -13891.702    -673.5188     31280.85 
 2660000     298.6959    -15760.52            0   -13916.593   -282.22261    31233.886 
 2670000    307.08411   -15768.619            0   -13872.909    338.63195      31030.7 
 2680000    297.44174   -15800.322            0   -13964.138   -71.871102    31642.148 
 2690000    295.30578   -15769.382            0   -13946.384    936.06318    31016.394 
 2700000    292.20699   -15860.324            0   -14056.455    -36.43551    30782.611 
 2710000    300.70615   -15715.007            0    -13858.67    131.30876    31062.227 
 2720000    313.73501   -15809.235            0   -13872.467    611.66619    31092.494 
 2730000    294.23702   -15747.228            0   -13930.827   -95.255278    31549.282 
 2740000    299.79237   -15788.556            0   -13937.861    215.17598    31226.204 
 2750000     296.9671   -15746.792            0   -13913.537   -327.60387    31550.701 
 2760000    294.99604   -15760.539            0   -13939.452    322.37955    31108.363 
 2770000    300.65085    -15713.92            0   -13857.925    -528.7821    31549.733 
 2780000    310.15156   -15788.539            0   -13873.893   -19.012234     31120.73 
 2790000    301.77001   -15828.447            0   -13965.543   -613.91747    31071.356 
 2800000    296.86565   -15901.647            0   -14069.019    827.81777    31011.891 
 2810000    301.41919   -15832.104            0   -13971.365    679.78743    31560.295 
 2820000    296.72919   -15857.398            0   -14025.613   -87.262805    31238.658 
 2830000    294.19017   -15797.439            0   -13981.327   -726.08521    31381.704 
 2840000     297.6196   -15612.546            0   -13775.264    733.45422    31589.481 
 2850000    292.44595   -15730.146            0   -13924.801   -398.69664    31327.929 
 2860000     292.3615   -15891.773            0    -14086.95    321.21118    31116.142 
 2870000    303.34445   -15852.297            0   -13979.673   -1005.2439    31090.932 
 2880000    304.65427   -15696.791            0   -13816.082    33.881819    31669.011 
 2890000    301.20222   -15761.687            0   -13902.288   -19.731153    31352.219 
 2900000    298.30253   -15856.107            0   -14014.609    139.30777    31354.754 
 2910000     298.8042   -15829.745            0    -13985.15    691.70681    31360.456 
 2920000    301.25103   -15745.114            0   -13885.414    311.27376    31248.838 
 2930000    297.28339   -15867.616            0   -14032.409     -765.663    31186.511 
 2940000    297.66137   -15838.747            0   -14001.206   -85.683262    31793.038 
 2950000     294.1376   -15783.669            0   -13967.882    136.11402    31340.771 
 2960000    299.85663   -15782.429            0   -13931.337    109.09341    31276.881 
 2970000     290.0259     -15775.7            0   -13985.295   -42.439995    31155.329 
 2980000    291.94608   -15693.771            0   -13891.512   -446.67014    30869.916 
 2990000    301.59897   -15818.591            0   -13956.743    1350.6955    30824.704 
 3000000    299.04711    -15703.97            0   -13857.876   -228.87839    31627.336 
 3010000    294.74567   -15838.715            0   -14019.174    483.67261     30863.64 
 3020000    297.03738   -15870.898            0    -14037.21    -598.3525    31274.405 
 3030000    294.57715   -15700.337            0   -13881.836   -161.17068    31770.887 
 3040000    296.17629   -15845.863            0    -14017.49    558.50046    30831.371 
 3050000    288.06447   -15819.483            0   -14041.187    953.03328    30975.602 
 3060000     297.0721   -15741.554            0   -13907.651    210.94652    31567.349 
 3070000    299.74182   -15778.623            0    -13928.24    458.89819    30884.034 
 3080000    298.56281   -15672.718            0   -13829.613    1015.0877    31145.747 
 3090000    301.42794   -15811.326            0   -13950.534   -8.6056509    31131.086 
 3100000    294.30317   -15779.745            0   -13962.936   -565.96178     31022.93 
 3110000    305.26047   -15828.479            0   -13944.027    545.28481    31140.442 
 3120000    296.93709   -15776.528            0   -13943.459   -766.10106    31634.046 
 3130000    292.71901   -15766.037            0   -13959.007   -552.65227    31226.665 
 3140000     311.0625   -15828.277            0   -13908.008    102.99375    31073.354 
 3150000    307.27341   -15781.558            0    -13884.68     166.0653    31396.897 
 3160000    300.09909   -15773.498            0   -13920.909    164.19172    31281.315 
 3170000    296.17319   -15738.168            0   -13909.815   -591.94773     31242.71 
 3180000    303.75977   -15743.336            0   -13868.149   -104.33564    31224.891 
 3190000    296.92103   -15694.589            0   -13861.619    86.853651    30862.295 
 3200000    302.41741   -15827.894            0   -13960.993   -21.061266    31342.591 
 3210000     298.0572   -15858.037            0   -14018.053   -43.130121    31219.347 
 3220000    296.10015   -15752.166            0   -13924.264    1233.8667    30991.113 
 3230000    296.22631   -15741.033            0   -13912.352      513.241    31239.124 
 3240000    294.97434   -15823.762            0   -14002.809   -69.274595    30833.511 
 3250000    308.84477   -15759.496            0   -13852.918    336.84383    31012.304 
 3260000    295.15507    -15802.16            0   -13980.092    75.129005    31162.115 
 3270000    295.52982   -15762.843            0   -13938.461    258.18965    31158.065 
 3280000    309.04183   -15823.428            0   -13915.633    152.60992    31437.361 
 3290000     296.4971   -15715.553            0     -13885.2   -777.88474    31319.835 
 3300000    305.69773   -15823.748            0   -13936.597    189.27444    31253.697 
 3310000    299.30063   -15777.991            0   -13930.331   -568.74318    30871.368 
 3320000    296.16753   -15799.657            0   -13971.338    683.94771    31137.461 
 3330000    294.64815   -15866.896            0   -14047.957   -104.64072    30951.865 
 3340000    309.33483   -15847.247            0   -13937.643    272.66483    31003.115 
 3350000    296.78551   -15763.501            0   -13931.367    119.56428    31678.406 
 3360000    296.21894   -15750.305            0   -13921.669    106.19118    31286.897 
 3370000    303.78194    -15807.92            0   -13932.596   -456.08062    31811.661 
 3380000    295.81082   -15788.903            0   -13962.787   -22.861656    31420.011 
 3390000    294.06007   -15741.273            0   -13925.965   -732.78113    31322.713 
 3400000     297.9214   -15832.204            0   -13993.058    53.521164    31454.359 
 3410000    295.84702   -15816.061            0   -13989.721    69.007935    30968.902 
 3420000    310.12577   -15899.936            0    -13985.45    12.730504    30978.426 
 3430000    291.15241   -15882.538            0   -14085.179    413.98569    31090.713 
 3440000    297.22511   -15696.232            0   -13861.385    236.04162    31822.916 
 3450000    294.31402   -15808.015            0   -13991.139    394.36128    31331.702 
 3460000    291.81563   -15765.579            0   -13964.126     131.2304    31568.426 
 3470000    298.82484   -15724.901            0   -13880.179    621.78967    31658.697 
 3480000    299.67552   -15794.033            0   -13944.059   -428.73308    31394.706 
 3490000    299.25971   -15932.672            0   -14085.264   -558.30207    31504.277 
 3500000    306.35657   -15855.215            0   -13963.997    14.953579    30813.126 
 3510000    308.62598   -15654.779            0   -13749.551   -294.63581    31371.103 
 3520000    305.84391   -15760.123            0   -13872.069      350.445    31325.741 
 3530000    299.94431   -15770.476            0   -13918.843   -605.04044    31543.148 
 3540000    298.41667   -15816.488            0   -13974.285    20.905763    31098.665 
 3550000     300.1262   -15776.102            0   -13923.345   -175.09111    31493.312 
 3560000    293.87292   -15777.818            0   -13963.665   -725.40059    31432.706 
 3570000    307.82372   -15733.004            0   -13832.729    482.38665    30807.274 
 3580000    299.42224   -15747.407            0   -13898.996    12.652291    31021.549 
 3590000    293.52647   -15782.247            0   -13970.233    164.32441    31358.072 
 3600000    293.07718   -15814.195            0   -14004.954   -1217.4909    31666.026 
 3610000    294.23467   -15839.037            0    -14022.65    241.91286    30887.159 
 3620000    301.94619   -15716.658            0   -13852.666   -169.56268    30986.211 
 3630000    296.51668   -15774.648            0   -13944.174    355.50643    31445.464 
 3640000    304.24075   -15859.931            0   -13981.775    631.44805    31048.133 
 3650000      299.871   -15755.922            0   -13904.741    111.06222    31192.709 
 3660000    301.37182   -15711.702            0   -13851.256    149.56519    31179.711 
 3670000     306.2036   -15807.777            0   -13917.503    158.08283     31079.59 
 3680000    289.28738   -15850.476            0    -14064.63    124.04953    31739.827 
 3690000    297.92326   -15894.773            0   -14055.616   -171.39367    31159.152 
 3700000    294.06063   -15850.489            0   -14035.177    626.20143    31103.239 
 3710000    295.67717   -15718.522            0   -13893.231    80.422452    31346.033 
 3720000    297.30873   -15730.997            0   -13895.634    223.64744    31652.795 
 3730000    311.22927   -15793.694            0   -13872.395    235.47538    31218.454 
 3740000    302.71849   -15805.194            0   -13936.435   -772.52726    31630.931 
 3750000     299.7158   -15749.103            0    -13898.88    100.64972     31582.92 
 3760000    296.05917   -15714.561            0   -13886.912    240.75179     31146.22 
 3770000    290.58776   -15729.694            0   -13935.821   -315.02558    31154.015 
 3780000     290.5599   -15668.223            0   -13874.522    91.219288    31546.302 
 3790000    287.84001    -15730.54            0   -13953.629   -248.76286    31215.172 
 3800000    296.02977    -15724.34            0   -13896.872    305.03431    31250.083 
 3810000    303.30168   -15760.258            0   -13887.898    112.32268    31567.516 
 3820000    298.29795   -15734.295            0   -13892.825    895.29915    30471.087 
 3830000    313.25627   -15785.318            0   -13851.506   -163.69004    31168.763 
 3840000    293.62303   -15741.348            0   -13928.737   -246.70289    31458.178 
 3850000    295.18514   -15774.121            0   -13951.867   -679.20811    31507.103 
 3860000    298.12797   -15774.038            0   -13933.618   -754.58775    31720.286 
 3870000    290.19499    -15786.08            0   -13994.631    684.00424    30715.545 
 3880000    290.81662   -15753.752            0   -13958.467   -676.35822    31376.013 
 3890000    307.56345   -15779.646            0   -13880.978   -702.71677    31417.117 
 3900000     294.6876   -15796.307            0   -13977.125   -427.42808    31514.155 
 3910000    287.90797   -15853.263            0   -14075.933   -903.18865    31248.341 
 3920000    302.58422   -15793.958            0   -13926.028    -72.89213    30949.639 
 3930000    288.64061   -15880.595            0   -14098.742    366.24566      30871.7 
 3940000    308.32961       -15793            0   -13889.602    370.14284    30994.837 
 3950000    305.85753   -15773.638            0   -13885.501   -762.23189    31496.401 
 3960000    291.34762   -15669.154            0    -13870.59    195.06167    31070.573 
 3970000    296.06426    -15774.57            0   -13946.889   -177.56817    31278.993 
 3980000    304.82567   -15719.633            0   -13837.866    296.59033    30799.757 
 3990000    304.01728   -15801.474            0   -13924.697   -762.20119    31116.411 
 4000000     297.2496   -15853.949            0   -14018.951    938.51811    30800.749 
 4010000    288.52788   -15796.729            0   -14015.572    473.67355    30922.285 
 4020000     302.8783   -15713.428            0   -13843.683   -103.86122    30940.574 
 4030000    295.43905   -15770.951            0    -13947.13    1.5224994    31018.585 
 4040000    291.10087   -15880.207            0   -14083.166    435.80818    31087.822 
 4050000     296.2775   -15790.517            0    -13961.52    -914.9811    31147.501 
 4060000    300.30425   -15785.215            0    -13931.36    652.96866    31409.317 
 4070000    305.07757   -15710.515            0   -13827.192    884.85164    30970.682 
 4080000    285.44452   -15818.964            0   -14056.842     170.4739    31053.812 
 4090000    300.23468   -15768.799            0   -13915.373   -222.90761    31009.985 
 4100000    295.75255   -15792.888            0   -13967.132    -897.9906    31403.898 
 4110000     304.0502    -15770.05            0   -13893.069   -454.84473    31484.523 
 4120000    298.39564   -15819.306            0   -13977.233   -316.56596    31211.819 
 4130000    291.09374   -15804.569            0   -14007.572     -128.823    30894.166 
 4140000    305.52092   -15730.091            0   -13844.031   -587.09912    31278.876 
 4150000    294.97846   -15868.881            0   -14047.903   -450.70186    31173.027 
 4160000    292.63081   -15816.067            0   -14009.582   -25.818512    31173.738 
 4170000    300.53164   -15793.926            0   -13938.667    369.99385    31279.012 
 4180000    289.87572   -15790.237            0   -14000.759   -6.0530098    30859.835 
 4190000    292.51762   -15696.332            0   -13890.546    716.84345    31150.367 
 4200000    301.70263   -15792.888            0     -13930.4    872.01196    31322.789 
 4210000    296.25118   -15775.319            0   -13946.484   -55.600954     31397.93 
 4220000    297.12394   -15715.672            0   -13881.449    845.64656    30672.635 
 4230000    294.54534   -15714.657            0   -13896.353    2.2653235    31276.375 
 4240000    298.32823   -15900.405            0   -14058.748    57.981747    31008.193 
 4250000      301.018   -15814.062            0     -13955.8   -92.819724    31238.436 
 4260000    295.77076   -15834.992            0   -14009.123     938.1471    31096.382 
 4270000    298.93082   -15751.756            0   -13906.379   -267.52867    31014.839 
 4280000    288.90495   -15769.123            0   -13985.639   -69.899583    31219.295 
 4290000    291.67343   -15748.965            0   -13948.389   -392.37398    31212.592 
 4300000     295.3333   -15875.671            0   -14052.502    1045.2212    31271.258 
 4310000    298.61146   -15752.869            0   -13909.464   -185.29835     31493.48 
 4320000    295.78907   -15736.512            0    -13910.53    133.72831    30983.818 
 4330000    291.83898   -15766.001            0   -13964.403   -73.547409    31510.205 
 4340000    297.32711   -15787.287            0    -13951.81   -207.46485    31184.977 
 4350000    301.63514   -15754.359            0   -13892.287    141.05008    31280.263 
 4360000    295.43705   -15672.115            0   -13848.306     397.6867    31160.371 
 4370000    298.98318   -15840.767            0   -13995.067   -57.144518    31295.835 
 4380000    283.88103   -15665.753            0   -13913.283    571.47528    31397.365 
 4390000     293.7602   -15774.775            0   -13961.318    55.349575      30867.5 
 4400000    300.66955   -15740.687            0   -13884.576    390.69123    31035.631 
 4410000    286.38394   -15728.755            0   -13960.833   -267.14337    31198.769 
 4420000    304.36748   -15707.144            0   -13828.205    36.241882    31222.703 
 4430000    304.86578   -15853.803            0   -13971.788    416.91066    30859.082 
 4440000    303.07332    -15798.15            0     -13927.2   -293.73376    31244.721 
 4450000    288.71584   -15815.991            0   -14033.673   -398.28911    31803.055 
 4460000    299.06762   -15759.056            0   -13912.834    275.28415    31509.645 
 4470000     294.5572   -15808.955            0   -13990.578    529.65453    31224.194 
 4480000    299.65025   -15749.683            0   -13899.865   -635.77268    31413.633 
 4490000     300.2468   -15840.453            0   -13986.953    532.19716    31239.265 
 4500000    295.76349   -15798.623            0   -13972.799    132.65368    31418.056 
 4510000    297.37683   -15723.582            0   -13887.798   -643.31462    31423.078 
 4520000     300.0763   -15808.841            0   -13956.392   -237.95789    31473.194 
 4530000     302.5347   -15729.251            0   -13861.627    121.89445    31348.877 
 4540000    291.68412   -15855.692            0   -14055.051   -601.69921    31130.861 
 4550000    293.05299   -15834.501            0    -14025.41    -101.8194    30647.654 
 4560000    296.09647   -15838.139            0   -14010.259    426.60647    31055.445 
 4570000    301.98967   -15767.115            0   -13902.855   -934.75134    31630.217 
 4580000    290.59547   -15696.393            0   -13902.473    440.09069    31215.793 
 4590000    301.14407   -15805.454            0   -13946.414    258.49437    31036.077 
 4600000    293.83689   -15820.755            0   -14006.824   -504.58435    31408.258 
 4610000    304.59853   -15744.883            0   -13864.517    560.17574    30848.922 
 4620000    296.14315   -15677.082            0   -13848.914    204.72161    31707.848 
 4630000    290.85472   -15713.255            0   -13917.734    183.28847     30804.27 
 4640000    289.02864   -15842.108            0    -14057.86    837.12778    30807.146 
 4650000    304.62784   -15668.335            0   -13787.789    181.20763    31066.546 
 4660000    299.11621   -15832.914            0   -13986.392   -415.06088    30908.036 
 4670000    295.13376   -15658.224            0   -13836.288    74.843663    31412.639 
 4680000    286.15955   -15839.595            0   -14073.059    623.61319    31136.448 
 4690000    308.28406   -15804.578            0   -13901.461    397.04074    31000.707 
 4700000    290.68018   -15717.534            0    -13923.09   -486.48639    31792.447 
 4710000    296.74528   -15811.747            0   -13979.862    1077.8348    30732.126 
 4720000    302.31051   -15785.426            0   -13919.185    150.58529    31303.205 
 4730000    296.36432   -15690.843            0    -13861.31    297.01379    31165.236 
 4740000      298.326   -15763.285            0   -13921.642    162.92974    31492.805 
 4750000     300.4051   -15772.255            0   -13917.777   -743.07825    31338.021 
 4760000    294.00623   -15764.672            0   -13949.696    189.75507    31065.448 
 4770000    289.83552   -15712.331            0   -13923.102   -370.91318    31603.254 
 4780000    293.28784   -15786.196            0   -13975.655   -654.55816    31164.939 
 4790000    300.15311   -15793.094            0   -13940.172    -71.38205    31306.074 
 4800000    292.90964   -15819.974            0   -14011.767   -599.60802    31524.584 
 4810000    296.82357   -15712.747            0   -13880.378    107.30853    31350.105 
 4820000    302.35104   -15814.367            0   -13947.876    261.91253    31300.503 
 4830000    287.94649   -15776.793            0   -13999.225   -279.25468    31067.183 
 4840000    306.21298   -15779.217            0   -13888.885       463.48    31021.516 
 4850000    310.34283   -15836.162            0   -13920.336    390.31108    31289.474 
 4860000    297.90881   -15763.569            0   -13924.501   -270.53441    31443.312 
 4870000    294.73932   -15867.892            0    -14048.39    711.60969    30610.022 
 4880000    301.36094    -15771.03            0   -13910.652   -728.84031    31646.369 
 4890000    287.40186   -15781.694            0   -14007.489   -32.578661    31780.288 
 4900000    300.45911   -15751.126            0   -13896.315    283.67818    30937.135 
 4910000    295.08061    -15799.65            0   -13978.041   -69.448164    31135.485 
 4920000    298.51392   -15829.744            0    -13986.94   -577.06274    31408.845 
 4930000    305.40036   -15761.689            0   -13876.374   -291.54469    31146.687 
 4940000    303.75893   -15685.019            0   -13809.836    267.90405    31160.696 
 4950000     300.3444   -15782.714            0   -13928.611    187.66915    31128.033 
 4960000    302.43212   -15726.569            0   -13859.578    133.29237    31523.132 
 4970000    303.53315   -15763.439            0    -13889.65    114.65243    31207.522 
 4980000    305.33895   -15779.536            0     -13894.6    1089.5771    30678.225 
 4990000    294.92448    -15759.72            0   -13939.075    488.65418    30625.996 
 5000000    299.09267   -15821.088            0   -13974.712    757.43499    30881.137 
Loop time of 5283.95 on 128 procs for 5000000 steps with 3072 atoms

Performance: 163.514 ns/day, 0.147 hours/ns, 946.262 timesteps/s
99.3% CPU use with 128 MPI tasks x no OpenMP threads

MPI task timing breakdown:
Section |  min time  |  avg time  |  max time  |%varavg| %total
---------------------------------------------------------------
Pair    | 1188.9     | 1425       | 1628.4     | 296.1 | 26.97
Bond    | 0.49871    | 0.58601    | 0.98839    |   9.8 |  0.01
Kspace  | 2153.7     | 2363.6     | 2580.2     | 226.2 | 44.73
Neigh   | 145.51     | 149.86     | 154.01     |  28.4 |  2.84
Comm    | 550.32     | 617.84     | 695.62     | 136.2 | 11.69
Output  | 0.043947   | 0.044505   | 0.045632   |   0.2 |  0.00
Modify  | 538.57     | 643.29     | 690.96     | 139.1 | 12.17
Other   |            | 83.7       |            |       |  1.58

Nlocal:    24 ave 32 max 18 min
Histogram: 5 9 26 15 19 30 13 9 1 1
Nghost:    2964.52 ave 3000 max 2924 min
Histogram: 2 6 8 15 22 23 23 21 7 1
Neighs:    9311.05 ave 13169 max 6239 min
Histogram: 4 11 17 23 24 17 20 8 2 2

Total # of neighbors = 1191814
Ave neighs/atom = 387.96
Ave special neighs/atom = 1.95312
Neighbor list builds = 437686
Dangerous builds = 0
reset_timestep 0

#################### 2) Obtaining average volume in NPT ######################
# Getting the average volume of the system
variable Volume equal vol
fix VoluAve all ave/time 1 ${Npnpt} ${Npnpt} v_Volume file volume.dat
fix VoluAve all ave/time 1 5000000 ${Npnpt} v_Volume file volume.dat
fix VoluAve all ave/time 1 5000000 5000000 v_Volume file volume.dat


# Thermo style for outputing system properties to the log file
thermo_style custom density
thermo_modify flush yes

variable Dens equal density
fix DensAve all ave/time 1 ${NBR} ${NBR} v_Dens file density.dat
fix DensAve all ave/time 1 100000 ${NBR} v_Dens file density.dat
fix DensAve all ave/time 1 100000 100000 v_Dens file density.dat

run ${Npnpt}
run 5000000
PPPM initialization ...
  extracting TIP4P info from pair style
  using 12-bit tables for long-range coulomb (../kspace.cpp:321)
  G vector (1/distance) = 0.311914
  grid = 30 30 30
  stencil order = 5
  estimated absolute RMS force accuracy = 0.00344491
  estimated relative force accuracy = 1.03742e-05
  using double precision FFTs
  3d grid and FFT values/proc = 2475 256
Per MPI rank memory allocation (min/avg/max) = 8.201 | 8.212 | 8.219 Mbytes
Density 
   1.0818489 
   1.0801522 
   1.0672592 
   1.0685618 
   1.0788517 
   1.0764726 
   1.0763477 
   1.0662162 
   1.0478693 
   1.0679395 
   1.0881085 
   1.0628156 
    1.057409 
   1.0615903 
    1.064249 
   1.0584425 
   1.0837663 
   1.0666356 
   1.0499928 
   1.0785045 
   1.0780134 
   1.0659123 
   1.0769782 
   1.0830799 
   1.0624241 
   1.0694407 
   1.0830937 
   1.0690251 
   1.0629808 
   1.0757432 
   1.0581081 
   1.0693552 
   1.0619676 
   1.0755963 
   1.0729762 
   1.0723896 
   1.0733061 
   1.0641235 
   1.0623241 
   1.0593664 
   1.0914707 
   1.0780472 
     1.08168 
   1.0754551 
   1.0648005 
    1.081596 
   1.0595076 
   1.0549234 
   1.0741678 
   1.0813964 
    1.067769 
    1.068938 
   1.0657463 
   1.0704109 
    1.077052 
   1.0789008 
   1.0642824 
   1.0748025 
   1.0637495 
   1.0720572 
   1.0645261 
   1.0664236 
   1.0829978 
    1.060672 
    1.070035 
   1.0667391 
   1.0733156 
   1.0707397 
   1.0716587 
   1.0683157 
    1.073591 
   1.0612061 
   1.0670329 
   1.0674513 
   1.0613886 
   1.0666365 
   1.0726315 
   1.0668319 
   1.0639936 
   1.0760288 
   1.0732424 
    1.066198 
   1.0870533 
   1.0744011 
   1.0643933 
    1.075511 
   1.0577521 
   1.0687307 
   1.0716831 
   1.0839995 
   1.0790337 
   1.0646376 
   1.0574222 
   1.0661125 
   1.0694087 
   1.0786161 
    1.078481 
     1.06167 
   1.0705752 
   1.0718081 
   1.0876403 
   1.0658299 
   1.0620231 
   1.0764987 
    1.071225 
   1.0762291 
    1.057936 
   1.0549973 
   1.0692866 
   1.0516247 
   1.0725553 
    1.070406 
   1.0788567 
   1.0578494 
   1.0728057 
   1.0785171 
    1.065432 
   1.0634412 
    1.062723 
   1.0623721 
   1.0772358 
    1.067493 
   1.0881761 
   1.0881458 
   1.0790026 
   1.0801775 
   1.0742064 
   1.0643112 
   1.0782795 
   1.0763749 
   1.0712648 
   1.0663965 
   1.0666161 
   1.0698479 
   1.0658806 
   1.0627364 
   1.0516813 
   1.0678001 
   1.0851953 
   1.0642656 
   1.0660692 
   1.0820198 
   1.0521468 
   1.0747895 
   1.0650585 
   1.0652853 
   1.0594317 
   1.0808238 
   1.0801275 
   1.0759703 
   1.0717944 
   1.0768473 
   1.0535247 
   1.0797685 
   1.0636511 
   1.0850073 
   1.0711966 
   1.0646727 
    1.067239 
   1.0739769 
   1.0882974 
   1.0755043 
   1.0713766 
   1.0764616 
    1.065384 
   1.0644444 
   1.0705795 
   1.0643329 
   1.0686702 
   1.0675127 
   1.0722145 
    1.066821 
   1.0649815 
   1.0718151 
   1.0487702 
   1.0573527 
   1.0609167 
   1.0793822 
   1.0764363 
   1.0499358 
   1.0789877 
   1.0844668 
   1.0583973 
    1.076909 
   1.0572145 
   1.0764421 
   1.0849228 
   1.0816077 
   1.0698968 
   1.0751362 
   1.0789069 
    1.054004 
   1.0535352 
   1.0636469 
   1.0698466 
   1.0747212 
   1.0840677 
   1.0770438 
   1.0790954 
   1.0566503 
   1.0633878 
   1.0786369 
   1.0580023 
   1.0676518 
   1.0782396 
   1.0595688 
   1.0642563 
   1.0672442 
   1.0853775 
   1.0693082 
   1.0720297 
   1.0725199 
   1.0589984 
   1.0677216 
   1.0688383 
   1.0665897 
   1.0607733 
   1.0757424 
   1.0798704 
   1.0643479 
   1.0633653 
   1.0799662 
   1.0670624 
   1.0721996 
   1.0864839 
   1.0606579 
   1.0719224 
   1.0861114 
   1.0583734 
   1.0782214 
   1.0793928 
   1.0572352 
    1.089821 
   1.0695578 
   1.0601358 
   1.0863211 
   1.0900419 
     1.06828 
   1.0717789 
   1.0574778 
   1.0949422 
    1.066883 
   1.0757098 
   1.0781269 
   1.0754252 
   1.0688224 
   1.0589907 
   1.0736565 
   1.0615776 
   1.0761374 
   1.0708444 
   1.0782249 
   1.0543905 
   1.0652782 
   1.0630591 
   1.0576496 
   1.0854126 
   1.0528669 
   1.0775013 
   1.0646191 
   1.0426977 
   1.0705419 
    1.074626 
   1.0624424 
   1.0547759 
   1.0666724 
   1.0816541 
    1.058294 
   1.0690352 
   1.0786089 
   1.0691498 
   1.0773755 
   1.0661482 
   1.0721442 
   1.0747147 
   1.0646557 
    1.062978 
   1.0737073 
   1.0817092 
   1.0814785 
   1.0755742 
   1.0676096 
   1.0743347 
   1.0740824 
   1.0741108 
   1.0648949 
   1.0653521 
   1.0756374 
   1.0683402 
   1.0780095 
   1.0695075 
   1.0729245 
   1.0842966 
   1.0597299 
   1.0844373 
   1.0718194 
   1.0652428 
   1.0574595 
   1.0799768 
    1.064134 
   1.0709503 
   1.0904259 
   1.0634919 
   1.0684998 
   1.0605952 
    1.094689 
   1.0747123 
   1.0684817 
   1.0610512 
   1.0762473 
   1.0814465 
   1.0782903 
   1.0775953 
   1.0708436 
   1.0832173 
   1.0784558 
   1.0547226 
   1.0651069 
   1.0789467 
   1.0915875 
   1.0718561 
   1.0813221 
   1.0639981 
   1.0669689 
   1.0725098 
   1.0752058 
   1.0611131 
   1.0817291 
   1.0678105 
   1.0709291 
   1.0663025 
   1.0480441 
   1.0544039 
   1.0737039 
   1.0732955 
   1.0564139 
   1.0690924 
   1.0706474 
   1.0648565 
   1.0546739 
    1.072558 
   1.0637358 
   1.0675355 
   1.0838944 
   1.0821701 
   1.0727898 
   1.0859739 
    1.078153 
   1.0687937 
   1.0800101 
    1.084656 
   1.0778363 
   1.0783955 
   1.0831343 
    1.058004 
   1.0570338 
   1.0611774 
   1.0774655 
   1.0807991 
   1.0743837 
   1.0623358 
   1.0872329 
   1.0885781 
   1.0717132 
   1.0823685 
   1.0785833 
   1.0622083 
   1.0621731 
   1.0628824 
   1.0802352 
    1.072104 
   1.0735739 
   1.0703102 
   1.0768584 
   1.0639915 
   1.0765924 
   1.0600993 
   1.0789912 
    1.079436 
    1.069623 
   1.0629391 
   1.0662877 
   1.0745203 
   1.0644188 
   1.0600897 
   1.0743319 
   1.0796588 
   1.0506858 
   1.0589872 
   1.0747924 
   1.0673589 
   1.0767185 
   1.0765852 
   1.0610919 
   1.0647555 
   1.0827963 
   1.0763626 
    1.063931 
   1.0594253 
   1.0706768 
   1.0643037 
   1.0680898 
   1.0613765 
   1.0752779 
   1.0680949 
   1.0783916 
   1.0687996 
   1.0653814 
   1.0656875 
   1.0672222 
   1.0672391 
   1.0744227 
   1.0809515 
   1.0589887 
   1.0860885 
   1.0696941 
   1.0648525 
   1.0677039 
   1.0650549 
   1.0670947 
   1.0637402 
   1.0571852 
    1.059642 
   1.0784832 
   1.0672195 
   1.0827084 
   1.0821192 
   1.0739925 
     1.06826 
   1.0584111 
    1.074766 
   1.0691231 
   1.0622592 
   1.0755346 
   1.0724871 
   1.0791659 
   1.0558425 
   1.0703742 
   1.0549451 
   1.0665005 
   1.0682737 
   1.0660157 
   1.0556184 
   1.0798245 
    1.065411 
   1.0684044 
    1.064918 
   1.0622628 
   1.0699905 
    1.059933 
   1.0729936 
    1.077602 
    1.067372 
   1.0858895 
    1.064577 
   1.0699843 
   1.0573282 
   1.0851664 
   1.0609456 
   1.0708905 
   1.0620797 
   1.0703689 
   1.0699969 
   1.0599282 
   1.0847674 
    1.083115 
   1.0601114 
   1.0614685 
   1.0768118 
   1.0878149 
   1.0611206 
   1.0592194 
   1.0738343 
   1.0552136 
   1.0596582 
    1.072332 
   1.0794517 
   1.0511144 
   1.0721437 
   1.0747549 
   1.0635448 
   1.0591921 
   1.0700558 
   1.0452719 
   1.0830277 
   1.0619485 
   1.0652439 
   1.0686564 
   1.0755197 
   1.0618734 
   1.0639877 
   1.0657334 
   1.0737194 
    1.065772 
   1.0788435 
   1.0739799 
   1.0737396 
   1.0776691 
   1.0575516 
   1.0748107 
    1.070096 
Loop time of 5330.84 on 128 procs for 5000000 steps with 3072 atoms

Performance: 162.076 ns/day, 0.148 hours/ns, 937.939 timesteps/s
99.3% CPU use with 128 MPI tasks x no OpenMP threads

MPI task timing breakdown:
Section |  min time  |  avg time  |  max time  |%varavg| %total
---------------------------------------------------------------
Pair    | 1187.3     | 1422.2     | 1633.2     | 294.7 | 26.68
Bond    | 0.49242    | 0.58609    | 0.95985    |  10.2 |  0.01
Kspace  | 2160       | 2359.3     | 2574.9     | 224.2 | 44.26
Neigh   | 145.6      | 149.82     | 153.85     |  28.2 |  2.81
Comm    | 549.31     | 616.97     | 691.15     | 137.2 | 11.57
Output  | 0.017678   | 0.02266    | 0.047524   |   2.5 |  0.00
Modify  | 596.27     | 698.26     | 746.33     | 133.4 | 13.10
Other   |            | 83.65      |            |       |  1.57

Nlocal:    24 ave 32 max 17 min
Histogram: 4 5 18 13 34 13 25 7 6 3
Nghost:    2928.33 ave 2962 max 2885 min
Histogram: 1 4 10 16 14 23 25 17 11 7
Neighs:    9215.61 ave 12704 max 5607 min
Histogram: 3 5 11 22 23 22 19 13 5 5

Total # of neighbors = 1179598
Ave neighs/atom = 383.984
Ave special neighs/atom = 1.95312
Neighbor list builds = 437626
Dangerous builds = 0
reset_timestep 0

#################### 3) Initializing the NVT ensemble ####################
# scaling the size of the system to the average volume
variable sidesize equal (f_VoluAve^(1.0/3.0))    # get the volume
variable xlow equal xlo
variable ylow equal ylo
variable zlow equal zlo
variable xhig equal (xlo+${sidesize})
variable xhig equal (xlo+31.4921179125753)
variable yhig equal (ylo+${sidesize})
variable yhig equal (ylo+31.4921179125753)
variable zhig equal (zlo+${sidesize})
variable zhig equal (zlo+31.4921179125753)
change_box all x final ${xlow} ${xhig} y final ${ylow} ${yhig} z final ${zlow} ${zhig}
change_box all x final 0.704667671422996 ${xhig} y final ${ylow} ${yhig} z final ${zlow} ${zhig}
change_box all x final 0.704667671422996 32.1967855839983 y final ${ylow} ${yhig} z final ${zlow} ${zhig}
change_box all x final 0.704667671422996 32.1967855839983 y final 0.704667671422996 ${yhig} z final ${zlow} ${zhig}
change_box all x final 0.704667671422996 32.1967855839983 y final 0.704667671422996 32.1967855839983 z final ${zlow} ${zhig}
change_box all x final 0.704667671422996 32.1967855839983 y final 0.704667671422996 32.1967855839983 z final 0.704667671422996 ${zhig}
change_box all x final 0.704667671422996 32.1967855839983 y final 0.704667671422996 32.1967855839983 z final 0.704667671422996 32.1967855839983
  orthogonal box = (0.704668 0.704668 0.704668) to (32.1968 32.1927 32.1927)
  orthogonal box = (0.704668 0.704668 0.704668) to (32.1968 32.1968 32.1927)
  orthogonal box = (0.704668 0.704668 0.704668) to (32.1968 32.1968 32.1968)
unfix DensAve
unfix VoluAve

# changing the ensemble to NVT
unfix integrate
fix integrate all nvt temp ${Temp} ${Temp} 100.0
fix integrate all nvt temp 298 ${Temp} 100.0
fix integrate all nvt temp 298 298 100.0


# Initializing the whole system with very small timesteps in the NVT ensemble
timestep 0.001
run ${Ninvtpre}
run 10000
PPPM initialization ...
  extracting TIP4P info from pair style
  using 12-bit tables for long-range coulomb (../kspace.cpp:321)
  G vector (1/distance) = 0.311644
  grid = 30 30 30
  stencil order = 5
  estimated absolute RMS force accuracy = 0.00348376
  estimated relative force accuracy = 1.04912e-05
  using double precision FFTs
  3d grid and FFT values/proc = 2475 256
Per MPI rank memory allocation (min/avg/max) = 8.201 | 8.212 | 8.219 Mbytes
Density 
    1.069681 
    1.069681 
Loop time of 8.05994 on 128 procs for 10000 steps with 3072 atoms

Performance: 0.107 ns/day, 223.887 hours/ns, 1240.705 timesteps/s
99.4% CPU use with 128 MPI tasks x no OpenMP threads

MPI task timing breakdown:
Section |  min time  |  avg time  |  max time  |%varavg| %total
---------------------------------------------------------------
Pair    | 1.1806     | 2.1184     | 3.1551     |  25.7 | 26.28
Bond    | 0.0006958  | 0.00082477 | 0.001289   |   0.0 |  0.01
Kspace  | 3.0094     | 4.0052     | 4.9181     |  18.5 | 49.69
Neigh   | 0          | 0          | 0          |   0.0 |  0.00
Comm    | 0.98008    | 1.0743     | 1.1406     |   3.7 | 13.33
Output  | 2.7882e-05 | 4.046e-05  | 7.8947e-05 |   0.0 |  0.00
Modify  | 0.66464    | 0.74237    | 0.79592    |   3.6 |  9.21
Other   |            | 0.1188     |            |       |  1.47

Nlocal:    24 ave 31 max 16 min
Histogram: 4 2 11 9 29 13 36 8 8 8
Nghost:    2929.04 ave 2963 max 2888 min
Histogram: 1 5 12 15 20 20 21 17 14 3
Neighs:    9212.28 ave 13340 max 5674 min
Histogram: 5 4 19 27 16 29 13 8 6 1

Total # of neighbors = 1179172
Ave neighs/atom = 383.845
Ave special neighs/atom = 1.95312
Neighbor list builds = 0
Dangerous builds = 0
timestep 0.01
run ${Ninvtpre}
run 10000
PPPM initialization ...
  extracting TIP4P info from pair style
  using 12-bit tables for long-range coulomb (../kspace.cpp:321)
  G vector (1/distance) = 0.311644
  grid = 30 30 30
  stencil order = 5
  estimated absolute RMS force accuracy = 0.00348376
  estimated relative force accuracy = 1.04912e-05
  using double precision FFTs
  3d grid and FFT values/proc = 2475 256
Per MPI rank memory allocation (min/avg/max) = 8.201 | 8.212 | 8.219 Mbytes
Density 
    1.069681 
    1.069681 
Loop time of 7.67597 on 128 procs for 10000 steps with 3072 atoms

Performance: 1.126 ns/day, 21.322 hours/ns, 1302.767 timesteps/s
99.4% CPU use with 128 MPI tasks x no OpenMP threads

MPI task timing breakdown:
Section |  min time  |  avg time  |  max time  |%varavg| %total
---------------------------------------------------------------
Pair    | 1.1632     | 2.1197     | 2.9197     |  23.6 | 27.61
Bond    | 0.00070203 | 0.00082543 | 0.0012005  |   0.0 |  0.01
Kspace  | 2.9081     | 3.6779     | 4.604      |  17.8 | 47.91
Neigh   | 0.0012445  | 0.0012572  | 0.0012746  |   0.0 |  0.02
Comm    | 0.98342    | 1.0688     | 1.1433     |   3.7 | 13.92
Output  | 2.3043e-05 | 3.4781e-05 | 0.00010591 |   0.0 |  0.00
Modify  | 0.62407    | 0.70055    | 0.75962    |   3.8 |  9.13
Other   |            | 0.1069     |            |       |  1.39

Nlocal:    24 ave 31 max 14 min
Histogram: 1 2 5 10 24 29 15 20 16 6
Nghost:    2929.23 ave 2961 max 2887 min
Histogram: 1 4 13 14 9 25 25 16 16 5
Neighs:    9211.66 ave 12641 max 5365 min
Histogram: 2 3 11 19 22 17 28 15 6 5

Total # of neighbors = 1179092
Ave neighs/atom = 383.819
Ave special neighs/atom = 1.95312
Neighbor list builds = 4
Dangerous builds = 0
timestep 0.1
run ${Ninvtpre}
run 10000
PPPM initialization ...
  extracting TIP4P info from pair style
  using 12-bit tables for long-range coulomb (../kspace.cpp:321)
  G vector (1/distance) = 0.311644
  grid = 30 30 30
  stencil order = 5
  estimated absolute RMS force accuracy = 0.00348376
  estimated relative force accuracy = 1.04912e-05
  using double precision FFTs
  3d grid and FFT values/proc = 2475 256
Per MPI rank memory allocation (min/avg/max) = 8.201 | 8.212 | 8.219 Mbytes
Density 
    1.069681 
    1.069681 
Loop time of 7.69563 on 128 procs for 10000 steps with 3072 atoms

Performance: 11.227 ns/day, 2.138 hours/ns, 1299.439 timesteps/s
99.4% CPU use with 128 MPI tasks x no OpenMP threads

MPI task timing breakdown:
Section |  min time  |  avg time  |  max time  |%varavg| %total
---------------------------------------------------------------
Pair    | 1.3186     | 2.127      | 2.7519     |  20.1 | 27.64
Bond    | 0.00069856 | 0.00082175 | 0.0013576  |   0.0 |  0.01
Kspace  | 3.0207     | 3.6852     | 4.4974     |  15.3 | 47.89
Neigh   | 0.013756   | 0.014011   | 0.014266   |   0.1 |  0.18
[...]
98160000    301.39399    297.61096   -81.920944    23.955234   -15779.246    1860.5828   -13918.663 
98170000    300.42172    297.79698   -746.83006    42.908447   -15723.425    1854.5807   -13868.845 
98180000    302.17533     298.1549   -106.56272   -24.368915   -15834.809    1865.4061   -13969.403 
98190000    292.29169    297.83785    427.82563   -105.65056   -15819.605    1804.3919   -14015.213 
98200000    294.60622    298.59295    119.67676   -12.755054   -15633.617    1818.6801   -13814.937 
98210000    299.40151    298.63698   -295.76877   -118.40665   -15787.591    1848.2826   -13939.308 
98220000    297.13745    298.46266   -90.852961   -66.072722   -15803.518     1834.306   -13969.212 
98230000    295.17282    297.81357   -361.13509    16.644135   -15851.551    1822.1778   -14029.373 
98240000    302.06236    297.97034    184.27887    8.2119989   -15788.481    1864.7088   -13923.772 
98250000    290.28975    298.63419    229.37656    81.715782   -15743.688    1792.0334   -13951.655 
98260000    308.74193    298.35508    36.290668   -26.872171   -15781.877    1905.9434   -13875.933 
98270000    293.42385    298.10265    7.8154335   -59.190706       -15650     1811.381   -13838.619 
98280000    302.31371    298.18389   -92.025829    11.730339   -15756.246    1866.2604   -13889.986 
98290000    296.81197    298.07259   -109.12986    9.0744987   -15748.964    1832.2967   -13916.667 
98300000    300.13481    298.65077    148.49976    50.487824   -15719.082    1852.8095   -13866.273 
98310000    290.97851    298.27149   -692.03261   -57.872696   -15750.612    1796.2853   -13954.327 
98320000    299.71492    298.02058    204.87343     86.62306   -15782.073    1850.2174   -13931.855 
98330000    297.77199    297.77078    468.43937   -43.300361   -15824.581    1838.2232   -13986.358 
98340000    302.39107    297.87892   -37.416362   -28.841061   -15735.408     1866.738   -13868.671 
98350000    297.33453    298.14723   -195.80012    -22.26928   -15867.735    1835.5226   -14032.212 
98360000     301.9815    297.99981   -435.92944    -47.23453   -15836.959    1864.2096    -13972.75 
98370000    300.71774    298.04321    234.30904    48.151147   -15818.691    1856.4081   -13962.283 
98380000    295.79407    297.87781    167.37899   -46.675195   -15771.928     1826.013   -13945.915 
98390000    292.01977    298.03525    573.76439    3.3953625   -15769.906    1802.7132   -13967.193 
98400000    292.18904    298.11125    651.39003    11.460272   -15690.258    1803.7582     -13886.5 
98410000     300.4926     298.2913    143.36187   -45.939242   -15835.495    1855.0182   -13980.477 
98420000    302.34139    297.62915   -328.96868   -126.99896   -15785.121    1866.4313   -13918.689 
98430000    296.54518    298.03714   -137.61012    57.006079   -15810.981    1830.6498   -13980.331 
98440000    301.48934    297.87722   -55.732891   -32.874531   -15752.112    1861.1714   -13890.941 
98450000    299.96934    298.13844   -799.02254   -21.750592   -15719.796     1851.788   -13868.008 
98460000    304.86447    297.86387    -224.9163   -134.59639   -15829.653    1882.0069   -13947.647 
98470000    291.34673     298.2883    309.14853    60.103658   -15703.364    1798.5584   -13904.806 
98480000    293.09523    298.17909   -404.81431    20.095341   -15791.015    1809.3524   -13981.663 
98490000    305.47248    298.19852   -339.52902   -8.9675745   -15873.369    1885.7603   -13987.608 
98500000    298.89375    298.18764   -181.75424    37.696469   -15716.703    1845.1481   -13871.555 
98510000    291.63691    298.43443   -299.35314    87.479617   -15768.038    1800.3498   -13967.688 
98520000    292.75698    298.47866   -382.68527    26.650941   -15726.589    1807.2642   -13919.325 
98530000    289.50059    298.18252    43.714583    82.037826   -15802.787    1787.1617   -14015.626 
98540000    296.98379    298.38369    -47.78573    24.016136   -15772.453    1833.3575   -13939.095 
98550000    284.68738    297.41283    121.58489    6.5662817   -15703.206    1757.4485   -13945.757 
98560000    307.45061    297.78131   -345.14359    88.208067   -15786.283    1897.9718   -13888.311 
98570000    290.95601    297.84144   -277.38659    34.879116    -15764.32    1796.1464   -13968.174 
98580000    288.91775    297.97732    267.18313   -52.070411   -15821.324    1783.5637    -14037.76 
98590000    299.86013     297.7608   -617.76546     12.32254   -15788.834    1851.1138    -13937.72 
98600000     308.1217    298.04222   -69.058775   -11.157701   -15784.151    1902.1146   -13882.036 
98610000    293.47147    297.65395   -298.08532   -46.373372   -15755.726     1811.675   -13944.051 
98620000    300.21689    297.72652    842.16319    -53.69298   -15785.999    1853.3162   -13932.683 
98630000    306.13573    297.89266   -857.19392   -115.76396   -15738.884    1889.8547   -13849.029 
98640000    310.74424    298.64011   -86.972647    120.01318   -15776.825    1918.3042   -13858.521 
98650000     292.8203    297.86697    170.86529    -19.22861   -15700.349    1807.6551   -13892.694 
98660000     293.2807    297.30383    630.72882   -9.8982041   -15845.413    1810.4973   -14034.915 
98670000    305.75076    297.72572   -167.43112   -66.940483   -15801.332    1887.4782   -13913.854 
98680000    300.48283    297.92545   -1389.9182    75.306545   -15802.541    1854.9579   -13947.583 
98690000    307.60433     297.5786   -289.79763   -78.137172   -15817.911    1898.9208    -13918.99 
98700000    301.54847    297.43419   -487.67667   -30.235208   -15784.808    1861.5364   -13923.271 
98710000    297.30026    298.23321   -131.87503   -5.9236888   -15791.315    1835.3111   -13956.004 
98720000    300.20942    298.22103   -104.96837   -2.2552991   -15758.262    1853.2701   -13904.992 
98730000    297.58109    297.80699    -296.9656   -64.794354   -15754.105    1837.0448   -13917.061 
98740000    297.49548      298.388     633.6606    29.038236   -15830.512    1836.5162   -13993.996 
98750000    296.28227    298.50465    617.98446   -11.401596   -15762.061    1829.0268   -13933.034 
98760000    298.31291    298.17792    303.74187   -52.351568   -15723.349    1841.5625   -13881.787 
98770000    300.01691    297.62516    66.304527   -26.887754   -15769.903    1852.0817   -13917.821 
98780000    296.09594    297.92906   -158.05052    8.6027533   -15752.013    1827.8765   -13924.137 
98790000    304.61023    298.17581   -214.16433   -62.093845   -15833.921    1880.4374   -13953.484 
98800000     303.1055    297.82095   -224.95792    106.82758   -15746.062    1871.1483   -13874.914 
98810000    294.83095    297.82077   -781.08751   -10.822348   -15809.101    1820.0674   -13989.034 
98820000    296.86238    298.25754    25.027386   -31.193704   -15840.326    1832.6079   -14007.718 
98830000    287.93535    297.33697    282.41181   -12.579497   -15786.756    1777.4991   -14009.257 
98840000    290.67044    298.05717    114.67662    24.527391   -15734.934    1794.3835    -13940.55 
98850000     301.1195    297.73264    328.13815   -22.604001   -15747.938    1858.8882    -13889.05 
98860000    298.08569    298.39091    78.001794   -81.139334   -15756.249    1840.1598    -13916.09 
98870000    295.54392     297.7353   -45.755947     11.59275   -15717.576    1824.4687   -13893.107 
98880000    289.66699    297.80914   -488.18712   -30.734045   -15765.958    1788.1889   -13977.769 
98890000    289.21488    298.08995    435.34841    -69.82188   -15819.018     1785.398    -14033.62 
98900000    287.77579    298.38257    556.21977   -19.625518   -15704.124    1776.5141    -13927.61 
98910000    306.56344    298.57586    67.305678   -27.683342   -15681.371    1892.4951   -13788.876 
98920000    305.25265    298.32279    93.737224    38.970787    -15843.92    1884.4033   -13959.517 
98930000    306.21835    297.91245   -405.77108    35.307948   -15774.082    1890.3648   -13883.717 
98940000    289.69861    298.01088    201.72637    62.617195   -15791.696    1788.3842   -14003.312 
98950000    301.49867    297.80306    194.94543   -50.239243   -15737.568    1861.2289   -13876.339 
98960000    290.41425    297.61218   -56.094737   -18.211345    -15763.04     1792.802   -13970.238 
98970000     300.4981    297.37008    346.01544   -72.653297   -15711.783    1855.0522   -13856.731 
98980000    305.41167    298.21812    331.63027    31.809347   -15899.766    1885.3849   -14014.381 
98990000    301.39313    297.44481    671.37757   -13.575178   -15782.392    1860.5774   -13921.814 
99000000    290.05419    298.12783   -475.75478   -28.341597   -15806.814    1790.5793   -14016.235 
99010000      297.741     298.5015   -317.33985    -12.20142   -15833.085    1838.0319   -13995.053 
99020000    306.17932    297.87776   -202.61033   -36.416846    -15722.83    1890.1238   -13832.706 
99030000     296.6189    298.04894   -237.80097  -0.47601826   -15729.704    1831.1049   -13898.599 
99040000    301.92874    297.89187    65.430922    43.654333   -15814.091    1863.8839   -13950.207 
99050000     308.6931      298.308   -819.03009    109.72965   -15722.978     1905.642   -13817.336 
99060000    298.53132    297.97802   -385.57418   -30.836176   -15726.136    1842.9108   -13883.225 
99070000    311.01083    298.43499    421.50188   -29.768064   -15748.227      1919.95   -13828.277 
99080000    293.64406    298.15469   -34.590307     67.47201   -15826.044    1812.7404   -14013.304 
99090000    297.35047     297.5545     139.6484    201.20477   -15859.895    1835.6211   -14024.274 
99100000    291.81763    298.12917    159.83948    22.559554   -15853.163    1801.4654   -14051.698 
99110000    288.04299    298.66618   -393.55647   -46.136025   -15771.213    1778.1636   -13993.049 
99120000    304.25254    297.78433   -185.26685    23.368378   -15852.549    1878.2293    -13974.32 
99130000    293.19712    297.82241    112.34329    116.11779   -15836.024    1809.9813   -14026.043 
99140000    305.62493     298.1295   -748.20805   -51.785832    -15824.71    1886.7014   -13938.009 
99150000    296.28257    297.89928   -161.14603  -0.74270342   -15772.192    1829.0287   -13943.163 
99160000    291.96161    298.16099    439.99219   -25.487672   -15755.054    1802.3542     -13952.7 
99170000    301.41673    297.99018    443.61053     6.291058    -15770.73    1860.7231   -13910.007 
99180000    299.58141    298.07414   -371.35906   -68.128248   -15790.148    1849.3932   -13940.755 
99190000    296.32724    298.01534   -355.76682   -24.448283   -15715.641    1829.3044   -13886.337 
99200000    290.81247    297.80174   -119.10194   -39.627261   -15810.441    1795.2603    -14015.18 
99210000    287.94382    297.75084    20.211885   -46.479021   -15759.668    1777.5514   -13982.116 
99220000    305.04385      297.785    398.57597   -7.2857665   -15829.027    1883.1143   -13945.913 
99230000    301.11944    297.99434    -907.7246    26.417228   -15815.597    1858.8879   -13956.709 
99240000    294.24965    297.95127   -223.05189     52.06714   -15768.336    1816.4789   -13951.857 
99250000    299.58021    298.39161    177.52373   -40.311126   -15652.786    1849.3858     -13803.4 
99260000    293.54476    298.14993    214.28442    5.5446045   -15854.058    1812.1274   -14041.931 
99270000    297.57738    297.73433   -169.27262   -6.6820491   -15788.354    1837.0218   -13951.332 
99280000     297.4319    297.89954    686.54383   -20.278233   -15774.319    1836.1237   -13938.196 
99290000    298.92057    297.77573    669.25347   -120.96464   -15789.668    1845.3137   -13944.354 
99300000    290.83208    298.70845   -327.41239   -6.1645918   -15663.649    1795.3814   -13868.268 
99310000    303.59252    297.77632   -75.944867    41.475043   -15853.943    1874.1548   -13979.789 
99320000    289.21081    297.94017   -199.72068    13.512607   -15813.143    1785.3728    -14027.77 
99330000    295.72457    297.71879   -253.70527   -65.840865   -15740.675     1825.584   -13915.091 
99340000    303.71569    297.99373   -37.151139   -57.107847   -15655.289    1874.9152   -13780.374 
99350000    291.23105    298.14791    67.687508    18.300103   -15650.781    1797.8443   -13852.937 
99360000      293.216    297.53778   -480.96565   -46.016298   -15809.252    1810.0979   -13999.154 
99370000    282.73978    298.09152    775.66623    157.88044   -15716.071    1745.4255   -13970.645 
99380000    297.51381    298.19477   -183.19216   -63.228434    -15755.32    1836.6294   -13918.691 
99390000    300.66143    297.71965    178.42794   -68.785798   -15812.441    1856.0604   -13956.381 
99400000    305.24024    297.83484   -552.36041   -27.353294   -15831.582    1884.3266   -13947.255 
99410000    293.49859    297.91676   -329.48396    85.731378   -15788.389    1811.8424   -13976.547 
99420000    297.81758    297.82826    329.63488   -26.325296   -15758.511    1838.5046   -13920.006 
99430000    291.57926    298.04819   -630.17465   -1.8322464   -15824.316    1799.9939   -14024.322 
99440000    299.59874    297.91515   -1014.2132    68.022133   -15761.773    1849.5002   -13912.273 
99450000    304.55061    297.99663    181.60917    -21.39672   -15742.367    1880.0694   -13862.297 
99460000    295.72121    297.75011   -18.827071   -48.074982   -15859.735    1825.5632   -14034.171 
99470000     299.8679     297.6391   -334.76024    23.890832   -15859.558    1851.1618   -14008.396 
99480000    294.99345    297.59981   -606.13203   -25.993671   -15841.583    1821.0706   -14020.512 
99490000    299.52563      298.241    -288.6507   -43.547097   -15744.739    1849.0489    -13895.69 
99500000    292.75489    298.19317    88.744536    39.298506   -15773.781    1807.2514    -13966.53 
99510000    292.64657     298.1424    380.53956    25.737815   -15783.273    1806.5827   -13976.691 
99520000    293.60892    298.23241    13.132915   -52.109636   -15739.236    1812.5235   -13926.713 
99530000    304.61892    298.62641   -51.299899    37.758587   -15745.981    1880.4911    -13865.49 
99540000    299.16623    298.24456    150.90087    64.466955   -15907.971    1846.8302   -14061.141 
99550000    299.14709    297.88688    8.7569913    44.336675   -15801.461     1846.712   -13954.749 
99560000    309.71726    298.02028   -396.26594   -51.777194   -15768.946    1911.9644   -13856.981 
99570000    291.35392     297.9625   -242.97044   -58.601062   -15715.426    1798.6028   -13916.823 
99580000    298.82804    298.51365    111.01271   -32.470478     -15855.8    1844.7425   -14011.058 
99590000    294.28943    297.81114   -466.71439   -2.2824136   -15768.998    1816.7245   -13952.274 
99600000    290.18716    298.42955   -127.52996    105.48568   -15726.486    1791.4001   -13935.086 
99610000    297.36732    297.69773   -321.33243   -15.681815   -15763.667    1835.7251   -13927.942 
99620000    299.12924    297.99225    736.86485    52.042773    -15705.25    1846.6019   -13858.648 
99630000    294.70675    298.10182   -571.85202   -47.866475   -15710.227    1819.3007   -13890.926 
99640000    297.11993     297.5627    303.15537   -54.743962   -15802.976    1834.1979   -13968.778 
99650000    299.12175    297.58954     13.96166    22.263914   -15736.433    1846.5556   -13889.877 
99660000    301.38889    298.08244   -923.52515   -150.16355   -15748.307    1860.5513   -13887.756 
99670000    288.61078    297.90828    440.50145     94.71967   -15834.744    1781.6687   -14053.075 
99680000    292.30214    297.52723   -551.06396   -54.927242   -15789.886    1804.4564   -13985.429 
99690000    293.40884    297.50167   -306.81858   -71.366519   -15827.155    1811.2883   -14015.866 
99700000    294.70571    297.84216    140.74717    23.512906   -15758.526    1819.2943   -13939.231 
99710000    301.01326    297.95521    54.690872   -55.987514   -15812.938    1858.2324   -13954.706 
99720000    292.05482      297.944    449.34546    30.509532    -15754.21    1802.9296    -13951.28 
99730000    298.39007    297.87748    143.06406   -85.592041   -15669.846    1842.0388   -13827.807 
99740000    307.20669     297.5341    634.36174   -99.787954   -15872.279    1896.4661   -13975.813 
99750000    298.70889    298.33005   -494.67737    59.350116   -15876.575    1844.0069   -14032.568 
99760000    296.23609    297.69204    481.66093   -28.866301   -15759.474    1828.7417   -13930.732 
99770000    297.46463    297.66156    1.3671728   -50.089571   -15711.443    1836.3258   -13875.117 
99780000    285.98044    298.75624   -273.19739    27.448516   -15811.986    1765.4309   -14046.555 
99790000    300.15539    298.10541    -228.3566    43.889723   -15770.683    1852.9365   -13917.746 
99800000    297.32773    297.96895   -138.79205   -102.72233     -15732.5    1835.4807   -13897.019 
99810000     291.8285    298.48999    -100.7531   -12.493938   -15800.664    1801.5325   -13999.131 
99820000    301.69819    298.00861   -14.116092   -46.946007   -15784.531    1862.4606    -13922.07 
99830000    292.97983    298.31798   -153.80789   -8.9168146   -15761.931    1808.6399   -13953.291 
99840000    299.63024    297.92291   -355.90627   -5.9498386     -15714.1    1849.6947   -13864.405 
99850000    298.97569    297.81284   -115.76165    38.262591   -15779.296     1845.654   -13933.642 
99860000    295.49001    298.22945   -614.32999   -7.6968541    -15704.17     1824.136   -13880.034 
99870000    300.66964    298.39753    201.24478   -49.468948   -15735.848    1856.1111   -13879.737 
99880000    293.11349    298.06999    764.17158   -12.672452   -15841.983    1809.4651   -14032.518 
99890000    295.76548    297.85655   -203.11477   -59.666851   -15768.556    1825.8365   -13942.719 
99900000    295.98932    298.07222   -346.69607   -10.066489    -15806.24    1827.2183   -13979.022 
99910000    296.01093    298.02839   -236.73278    38.637936   -15768.789    1827.3517   -13941.437 
99920000    296.16781    297.66356   -4.4861678   -42.570839   -15796.359    1828.3202   -13968.039 
99930000    294.31069    298.00882   -258.57269    64.770545   -15779.551    1816.8557   -13962.695 
99940000    290.60353    298.37215    282.28244  -0.71385335   -15724.003    1793.9704   -13930.033 
99950000    295.14647    298.30839    -73.65112   -92.412056   -15786.368    1822.0152   -13964.353 
99960000    301.97786    297.75777    480.09559    99.639988    -15827.13    1864.1871   -13962.943 
99970000    294.37872    297.93433    175.63151    -45.19017   -15751.299    1817.2757   -13934.023 
99980000     295.9134    298.15532   -395.86266    42.549309   -15798.919    1826.7497    -13972.17 
99990000     311.3333    297.67187    452.73653    100.68748   -15833.848    1921.9407   -13911.907 
100000000     292.9288    298.23626    769.50919   -88.435963   -15758.607    1808.3249   -13950.282 
Loop time of 93331.1 on 128 procs for 100000000 steps with 3072 atoms

Performance: 185.147 ns/day, 0.130 hours/ns, 1071.454 timesteps/s
99.3% CPU use with 128 MPI tasks x no OpenMP threads

MPI task timing breakdown:
Section |  min time  |  avg time  |  max time  |%varavg| %total
---------------------------------------------------------------
Pair    | 20041      | 23802      | 26900      |1154.1 | 25.50
Bond    | 8.4956     | 9.8269     | 13.463     |  24.5 |  0.01
Kspace  | 39672      | 42787      | 46586      | 876.6 | 45.84
Neigh   | 2966.6     | 2991.8     | 3017.5     |  27.0 |  3.21
Comm    | 11668      | 12505      | 13155      | 340.8 | 13.40
Output  | 4.6765     | 85.464     | 100.77     | 168.5 |  0.09
Modify  | 8898.8     | 9610.6     | 10236      | 316.9 | 10.30
Other   |            | 1539       |            |       |  1.65

Nlocal:    24 ave 32 max 16 min
Histogram: 1 9 3 25 16 37 22 6 7 2
Nghost:    2942.19 ave 2982 max 2897 min
Histogram: 7 3 6 10 23 30 23 15 8 3
Neighs:    9210.77 ave 12353 max 5264 min
Histogram: 1 5 9 16 18 26 19 18 8 8

Total # of neighbors = 1178979
Ave neighs/atom = 383.782
Ave special neighs/atom = 1.95312
Neighbor list builds = 8670903
Dangerous builds = 0

quit
