3072
Atoms. Timestep: 0
O 19.3491 8.85512 13.7905
H 19.2695 9.75746 13.4812
H 19.0994 8.89498 14.7137
O 19.3019 22.4695 23.0945
H 19.3569 23.2922 22.6082
H 18.7743 21.8966 22.5381
O 29.6052 19.1339 13.7439
H 29.3447 18.3746 14.2654
H 29.0752 19.0724 12.9492
O 9.63094 11.9934 15.5006
H 9.99987 12.3893 14.7111
H 9.13158 12.6989 15.9119
O 17.4451 25.3761 31.6021
H 18.1238 25.8275 31.1002
H 17.7416 25.4316 1.01841
O 21.1297 3.61014 12.7743
H 21.5947 4.32475 12.3392
H 21.8132 3.12615 13.2378
O 28.4317 29.996 7.49955
H 28.2241 30.5168 8.2754
H 27.9512 29.1776 7.62431
O 19.7404 3.43301 27.2403
H 19.5406 3.86487 26.4098
H 20.5193 3.88502 27.5645
O 9.28085 7.1385 11.2939
H 9.51397 7.08848 10.3669
H 9.47002 6.26492 11.6365
O 21.835 21.2449 10.7079
H 22.3073 21.29 9.8765
H 20.9459 21.528 10.4945
O 30.3855 17.8339 1.22068
H 29.9456 18.215 31.9529
H 29.9246 17.0095 1.37625
O 1.77382 27.7123 27.5984
H 1.25376 26.9758 27.92
H 2.68205 27.4299 27.7061
O 27.2033 11.7419 23.9228
H 27.1921 10.8015 23.7443
H 26.4685 12.0907 23.4182
O 2.96679 20.5883 21.3161
H 2.94737 21.4561 21.7196
H 3.83283 20.5307 20.9125
O 8.06935 19.7503 8.93807
H 8.5504 19.8082 9.76358
H 7.54026 20.5475 8.91211
O 29.0881 9.66482 6.16166
H 28.4777 9.13399 5.64989
H 29.9514 9.3108 5.94811
O 18.412 29.69 5.99777
H 19.153 29.097 6.12222
H 18.2728 29.7048 5.05086
O 26.6267 9.35735 11.454
H 25.9183 8.73274 11.2982
H 26.2229 10.2154 11.3241
O 7.26765 25.1475 12.5734
H 6.56786 25.7754 12.753
H 7.9623 25.6703 12.173
O 8.79405 9.47618 9.26523
H 9.24983 9.17915 8.47766
H 8.04738 8.88307 9.34849
O 30.7484 23.2129 31.4237
H 30.7392 23.6557 0.78022
H 30.5113 22.3073 31.623
O 15.4494 18.7413 32.0623
H 16.153 18.2437 0.98666
H 15.3656 18.3549 31.1906
O 27.8725 29.9205 23.5207
H 27.1758 29.6972 22.9036
H 27.7762 29.2863 24.2312
O 11.6719 24.077 0.712982
H 12.304 23.3583 32.1932
H 11.0188 23.8115 1.36052
O 25.2644 25.526 7.59157
H 25.9605 24.9757 7.95054
H 25.0665 25.1374 6.73951
O 19.7744 19.1779 30.4729
H 20.6227 18.8208 30.2101
H 19.8293 20.1093 30.2587
O 29.791 7.29122 11.3894
H 28.8465 7.21278 11.5241
H 30.1243 6.40114 11.5028
O 2.06548 20.5388 25.8021
H 2.69955 21.2334 25.9803
H 2.40737 19.7763 26.2689
O 19.9749 10.0243 16.6668
H 20.3005 10.808 17.1096
H 19.2276 9.74334 17.1948
O 18.2234 0.760841 22.381
H 17.5496 31.5977 22.2
H 19.0241 31.7446 22.5098
O 29.4795 30.8464 27.2164
H 29.5292 30.18 26.5311
H 29.7269 31.6605 26.7779
O 14.7586 24.2038 2.48296
H 14.2938 23.3809 2.33087
H 14.9635 24.5292 1.60642
O 29.4576 17.1461 19.9084
H 29.9492 17.2459 20.7236
H 28.7012 16.6108 20.1483
O 11.8192 19.9263 9.16697
H 12.4482 20.4672 9.64438
H 11.1985 19.6341 9.83457
O 7.63721 24.9731 2.51685
H 6.89989 24.5648 2.97063
H 7.29857 25.1789 1.64553
O 6.5401 15.0157 27.1337
H 7.37171 14.971 26.6618
H 6.65129 14.418 27.8731
O 6.84972 7.01326 19.1778
H 6.96671 6.30371 19.8096
H 7.73976 7.29176 18.9622
O 28.5271 5.80545 24.7056
H 29.3828 5.93822 24.2977
H 28.2877 6.66704 25.047
O 2.37413 23.9432 29.2316
H 2.78945 24.7586 29.5125
H 1.43979 24.1486 29.1991
O 13.1852 31.107 21.4301
H 12.9589 31.4601 22.2906
H 13.8737 31.6876 21.106
O 16.4774 21.2194 7.66708
H 16.8764 20.815 6.89671
H 16.3119 20.4889 8.26309
O 28.6013 28.3957 4.69355
H 28.2173 28.8745 3.95906
H 27.8523 28.0033 5.14213
O 29.3452 28.8542 15.2546
H 28.722 28.3427 14.7386
H 28.8002 29.3545 15.8621
O 22.1904 7.92752 27.1381
H 22.0688 7.31975 27.8676
H 21.3041 8.20467 26.9063
O 21.7444 18.4344 25.7538
H 21.6463 19.1951 26.3265
H 22.4053 18.6992 25.1141
O 23.8597 8.62702 22.7624
H 23.3993 8.77614 23.5882
H 23.9271 7.67466 22.6937
O 22.0335 16.9943 10.1365
H 22.195 17.5041 9.34256
H 21.2139 16.5317 9.96201
O 20.2829 15.9855 27.7415
H 21.2333 16.0174 27.6318
H 20.1304 15.2161 28.2901
O 11.5495 4.20582 20.7828
H 11.2417 3.34305 21.0605
H 11.6293 4.13743 19.8314
O 24.6798 7.40248 11.3129
H 24.6056 6.63487 11.8799
H 23.8743 7.89533 11.4697
O 29.4161 11.9158 22.4008
H 30.251 11.646 22.7835
H 28.7951 11.8773 23.1282
O 7.74428 3.34034 5.1885
H 6.84561 3.65135 5.07941
H 8.19939 4.06639 5.61507
O 12.3437 10.2003 12.2334
H 12.7187 10.2824 13.1103
H 11.3979 10.2531 12.371
O 8.92941 5.88574 6.25977
H 9.70039 5.75732 5.70721
H 8.22659 6.09793 5.64555
O 2.72166 30.2601 14.5286
H 2.8789 29.5701 15.1732
H 2.03031 29.9103 13.9666
O 29.5309 17.335 9.8232
H 29.0025 17.8261 10.4523
H 29.1477 17.5456 8.97172
O 18.7065 13.0178 3.76552
H 18.313 13.1441 2.90213
H 19.344 13.7274 3.84493
O 15.8222 8.47331 9.64068
H 15.0475 8.92658 9.3081
H 16.5314 8.75451 9.0626
O 10.5225 0.727966 8.54975
H 10.5691 1.13177 9.41636
H 11.3132 1.02879 8.10196
O 30.5817 6.83246 8.47991
H 30.8087 7.228 7.63834
H 30.1121 7.52145 8.94999
O 26.1285 29.2056 12.1125
H 26.9138 28.6833 12.2758
H 25.5209 28.9487 12.8061
O 2.05389 11.4393 18.3281
H 1.12101 11.6025 18.4671
H 2.47055 11.7194 19.1431
O 20.1922 26.2813 23.4903
H 19.4475 25.8925 23.9491
H 20.2726 25.769 22.6858
O 27.9915 21.3905 17.423
H 28.1608 22.2948 17.687
H 28.2883 20.8641 18.1653
O 18.7112 24.4185 10.8811
H 19.2767 24.8463 10.2382
H 17.8432 24.7893 10.7217
O 6.11624 2.00139 1.24249
H 5.81029 2.90497 1.32103
H 5.76774 1.56176 2.01806
O 21.6977 24.4001 17.466
H 22.2173 24.6649 16.707
H 21.2067 25.1857 17.7066
O 2.01372 18.7576 23.3888
H 2.40188 19.3344 22.7309
H 1.73525 19.3466 24.09
O 25.0384 30.0238 21.1797
H 24.8002 29.1935 20.7673
H 24.4566 30.0913 21.9368
O 3.85494 20.157 12.5085
H 4.57509 19.5896 12.2333
H 3.07739 19.6014 12.4539
O 14.2634 13.2049 27.8561
H 14.3212 14.1121 27.5564
H 13.3863 12.9221 27.5972
O 13.2245 14.5787 15.2562
H 12.6245 14.8827 14.5752
H 13.1226 15.2126 15.9662
O 1.00188 23.0785 20.6718
H 31.8454 23.7169 20.3752
H 1.54028 22.9067 19.8993
O 6.74037 2.4855 14.5296
H 6.34598 2.13371 15.3276
H 6.35587 3.35706 14.4359
O 21.2332 30.3949 9.39661
H 20.4063 30.5893 9.83777
H 21.1668 30.8435 8.5537
O 24.6573 29.9116 26.1757
H 25.4495 30.2851 26.562
H 24.2008 29.5039 26.9117
O 32.1558 9.24791 28.9816
H 0.717724 10.1203 28.5914
H 31.3668 8.86289 28.6003
O 7.41505 31.8877 30.5306
H 6.82847 32.0872 29.8009
H 7.02353 0.840962 31.282
O 28.3754 25.5464 25.8445
H 27.9443 25.4279 24.9982
H 29.229 25.126 25.74
O 12.5281 26.2605 2.62091
H 12.7281 25.427 2.19491
H 13.3839 26.6502 2.79965
O 8.46508 26.297 30.2556
H 7.80741 26.7056 29.6928
H 7.9866 25.6161 30.7285
O 16.0719 19.3818 26.6475
H 15.831 19.5937 25.7456
H 15.2767 19.5484 27.1537
O 11.8825 4.31198 31.3529
H 11.0015 3.94648 31.4338
H 12.0323 4.76306 32.1838
O 25.1285 7.3031 0.82392
H 25.6401 7.76432 1.4886
H 24.3844 6.9391 1.30358
O 26.4697 4.61892 1.35102
H 26.7491 4.39124 31.9564
H 26.0272 5.46219 1.25416
O 4.19035 26.2036 10.2275
H 4.6934 26.6863 10.8834
H 4.34904 25.2824 10.4335
O 19.1798 8.92516 10.5979
H 19.349 8.03431 10.2914
H 19.254 9.46739 9.81263
O 32.1786 18.3965 9.6212
H 0.905041 18.8106 8.78635
H 31.2486 18.1823 9.54666
O 16.4792 7.7973 3.7376
H 16.4493 8.74798 3.6302
H 17.3518 7.54872 3.43249
O 16.3878 30.5132 15.0556
H 16.5854 30.4492 14.1212
H 16.7267 31.3702 15.3143
O 21.7124 12.8836 8.74757
H 21.194 13.4166 9.35041
H 21.8169 13.433 7.97071
O 29.856 5.13092 29.2625
H 29.7928 5.89526 28.6897
H 30.7384 5.17896 29.6303
O 9.59394 23.7011 14.9732
H 9.18701 23.4029 14.1597
H 10.4042 24.1273 14.6941
O 11.3826 17.9209 25.4483
H 10.9854 18.7501 25.7143
H 11.5923 17.4801 26.2717
O 26.5551 22.9763 26.835
H 27.1484 22.6949 26.1386
H 26.5335 22.2387 27.4446
O 9.98275 31.9726 2.80109
H 9.43127 1.24758 2.64704
H 9.82236 31.7416 3.71604
O 18.6489 28.2493 21.8247
H 19.1602 28.896 21.3384
H 19.2112 28.0014 22.5586
O 12.9508 1.36251 7.19354
H 12.5448 1.91559 6.52608
H 13.8147 1.75027 7.33353
O 16.6082 11.2269 14.5641
H 16.4705 12.1341 14.8368
H 15.7273 10.8566 14.5089
O 16.0062 26.1058 16.0121
H 16.0556 26.6579 16.7925
H 16.7305 25.4876 16.1093
O 31.0906 6.37668 23.4918
H 31.301 6.22877 24.4138
H 31.2821 7.30338 23.3476
O 17.4806 9.76402 17.7896
H 17.1624 8.87719 17.6206
H 16.8177 10.3349 17.4011
O 10.1856 27.4087 21.1343
H 10.1824 27.523 22.0846
H 10.3859 26.4817 21.0047
O 1.87502 13.989 3.87532
H 1.91334 13.0382 3.77186
H 2.42809 14.3294 3.17213
O 7.26328 7.36407 4.52683
H 7.31671 7.00064 3.64292
H 7.34709 8.30953 4.40305
O 13.3846 21.3525 4.36162
H 13.0439 20.497 4.6227
H 12.9713 21.5276 3.5162
O 12.8345 9.45866 27.3479
H 12.3939 9.40191 28.1958
H 13.7465 9.65325 27.5638
O 7.02509 23.4216 16.0614
H 7.77284 23.6671 15.5165
H 7.24029 22.5465 16.3841
O 25.8775 4.95032 25.6598
H 26.3303 5.22426 26.4574
H 26.1356 5.59721 25.0031
O 16.9253 31.3352 18.8753
H 16.5968 31.1907 19.7627
H 16.2559 30.9546 18.3067
O 17.8238 22.7093 32.1265
H 17.9111 22.5834 1.57921
H 17.4135 23.5694 32.0359
O 13.1319 9.26609 9.30562
H 12.6562 8.89869 8.56066
H 13.1989 8.54216 9.92825
O 22.9593 15.9109 26.4866
H 22.5155 15.4209 25.7944
H 22.5813 16.789 26.4393
O 17.4377 1.11153 24.9133
H 18.1624 0.895467 25.5002
H 17.7807 0.942021 24.0359
O 19.3973 22.9496 4.51117
H 19.3064 22.6547 5.41726
H 19.2279 23.891 4.54709
O 3.83934 14.5248 26.5682
H 4.75838 14.7915 26.5902
H 3.38252 15.2699 26.1779
O 23.0245 24.4411 8.38762
H 22.4365 24.5542 7.64083
H 23.8231 24.9054 8.13669
O 22.5014 13.1767 20.6178
H 22.2971 14.0365 20.2501
H 23.4557 13.1675 20.691
O 4.82187 18.1395 4.40118
H 4.6835 18.9572 4.87911
H 5.02757 17.4966 5.07993
O 30.2833 14.5971 13.6782
H 29.6916 13.8769 13.8962
H 30.2776 14.6312 12.7216
O 8.72626 26.2663 9.32432
H 8.65271 25.5978 8.64319
H 7.82759 26.5633 9.4671
O 30.0995 4.34907 13.0484
H 29.602 3.67494 12.5854
H 29.452 4.78935 13.5991
O 6.10736 14.3282 10.6425
H 6.96662 14.5527 10.9995
H 6.25528 13.5201 10.1513
O 9.16788 3.83414 31.2771
H 8.84832 4.73208 31.1888
H 8.64124 3.32988 30.657
O 13.2145 23.1686 19.9294
H 13.378 22.3271 20.3551
H 13.3624 23.8181 20.6167
O 14.5561 15.8626 27.5155
H 14.8167 16.4269 26.7876
H 13.624 16.0429 27.6372
O 9.16863 31.1758 23.1629
H 8.84532 30.4768 23.7314
H 9.3248 30.7477 22.3212
O 12.5334 12.8484 18.6897
H 11.6022 13.0225 18.8266
H 12.5622 12.2977 17.9074
O 10.5808 12.0228 2.69159
H 10.5599 12.7363 3.3293
H 9.70045 12.0107 2.31596
O 21.7395 19.4892 12.9684
H 21.0247 19.5199 13.6043
H 21.5541 20.208 12.3641
O 14.0156 22.9232 15.3179
H 13.6035 22.0894 15.5442
H 14.6289 22.7051 14.6161
O 6.32251 28.7977 4.23319
H 6.07566 28.4225 5.07849
H 6.54737 29.7069 4.43065
O 16.1626 20.5982 18.2448
H 15.822 21.488 18.1521
H 15.7657 20.1128 17.5215
O 23.0279 24.3761 14.8154
H 23.5621 23.7339 14.3482
H 22.3379 24.6112 14.195
O 21.9744 27.3854 30.4428
H 21.059 27.6502 30.352
H 22.4039 27.7351 29.662
O 7.26942 12.7607 6.73352
H 6.74743 13.151 6.0325
H 7.53256 11.9069 6.38991
O 9.14185 29.9376 7.98795
H 9.69519 29.5619 7.3032
H 9.53647 30.7894 8.17496
O 30.1615 27.4971 17.3752
H 29.7893 28.0902 16.7226
H 29.5661 27.5581 18.1222
O 16.9872 12.7238 22.5757
H 17.8616 12.34 22.6409
H 16.9406 13.3402 23.3066
O 12.5881 27.8309 11.68
H 12.4744 26.8843 11.5947
H 12.5967 27.9875 12.6243
O 2.87901 26.8253 22.3448
H 3.47069 26.5688 21.6375
H 2.42144 26.018 22.5796
O 14.7775 7.16234 1.66132
H 15.0706 6.30243 1.35977
H 15.2444 7.29953 2.48559
O 6.42759 31.9983 24.967
H 6.30475 31.5062 25.7788
H 5.60557 31.8836 24.4902
O 15.1183 18.7339 11.484
H 14.2628 18.4189 11.7759
H 14.939 19.5904 11.096
O 27.9027 23.9701 14.0606
H 28.3379 23.2342 13.63
H 28.6162 24.5554 14.3147
O 16.198 27.6103 18.4172
H 15.5997 28.3312 18.2206
H 17.0077 28.0391 18.694
O 2.32226 16.2472 9.95647
H 3.19423 16.447 9.61596
H 1.79598 17.0152 9.73423
O 24.1863 31.4963 2.66639
H 23.4886 30.9852 2.25627
H 24.6969 31.8379 1.93228
O 25.7812 21.3833 12.036
H 25.4974 20.5111 11.7623
H 26.6137 21.5179 11.5832
O 24.8719 29.4096 4.80616
H 24.9919 30.3558 4.88687
H 23.9382 29.3006 4.6259
O 25.153 1.34934 20.7412
H 25.6159 1.55357 21.5538
H 25.3178 31.9094 20.5989
O 25.2314 15.3909 23.4144
H 25.1376 14.6214 22.8529
H 24.4585 15.9225 23.224
O 23.4299 27.1381 23.786
H 23.8441 27.9925 23.6652
H 23.4142 26.7529 22.9099
O 28.0166 21.5522 10.1417
H 27.8158 22.3888 9.72224
H 28.9073 21.3483 9.85643
O 14.543 5.87329 28.0892
H 13.975 5.20991 27.6973
H 13.9451 6.45214 28.5621
O 11.0737 25.1339 29.6856
H 10.3509 25.741 29.844
H 11.177 24.6627 30.5124
O 2.18671 8.04971 31.1024
H 1.87701 8.15684 32.0018
H 1.68742 8.69237 30.5985
O 11.9196 22.1502 29.1966
H 12.189 21.6226 28.4447
H 12.5686 22.8523 29.242
O 22.3334 1.47118 13.9324
H 21.5364 1.01051 14.1945
H 22.4059 2.19708 14.5521
O 24.2634 12.1276 28.3219
H 24.1987 12.4517 27.4236
H 23.9088 12.8362 28.8588
O 22.6663 31.8482 26.6299
H 22.8056 32.021 27.561
H 23.3403 31.2083 26.4011
O 21.5079 14.7424 24.6156
H 21.4993 13.7931 24.7385
H 21.7206 14.8626 23.6901
O 20.9396 24.8452 13.3148
H 20.2597 25.4664 13.5756
H 20.8329 24.7563 12.3677
O 28.8229 17.8383 7.22659
H 28.1333 17.3094 6.82533
H 28.7327 18.6996 6.81885
O 25.1927 27.4946 19.9754
H 24.2421 27.4292 20.0661
H 25.3409 27.5426 19.0309
O 29.1899 25.9502 8.14884
H 29.5276 25.7272 7.28139
H 28.4882 25.3177 8.30304
O 8.90874 27.326 3.67791
H 8.66899 26.4789 3.30227
H 8.11937 27.8601 3.58891
O 3.08745 2.67495 31.3502
H 3.67935 3.26597 31.8156
H 2.48083 2.36448 32.0224
O 16.4233 27.1298 23.8997
H 16.2068 27.1255 22.9673
H 16.542 28.0551 24.1141
O 2.82263 17.004 19.9473
H 3.44941 16.3538 19.6299
H 2.46382 16.6207 20.7476
O 9.64596 22.8702 2.00458
H 9.90772 22.5182 2.85538
H 8.96192 23.5078 2.20881
O 2.08274 1.27528 16.0211
H 1.69269 1.62265 15.2189
H 2.2581 31.8473 15.8237
O 1.34511 23.007 9.61989
H 1.74277 23.0762 10.4878
H 0.937439 23.8606 9.47389
O 2.48767 31.2697 4.08893
H 1.60974 30.8977 4.00465
H 2.7341 31.0996 4.9981
O 8.55659 17.4091 12.8774
H 8.97463 18.0249 12.2755
H 8.65153 16.5565 12.4528
O 28.2503 31.3985 3.06778
H 28.434 31.9458 2.30428
H 27.7142 30.6827 2.72656
O 19.4926 3.35014 1.22153
H 20.3202 3.00782 0.883658
H 19.3627 4.17272 0.749614
O 9.89337 13.169 19.0844
H 9.12884 13.2991 18.5233
H 9.53126 13.0753 19.9655
O 24.8471 18.2408 14.7028
H 24.2581 17.5025 14.8589
H 24.9094 18.3007 13.7495
O 16.9768 22.3781 25.7124
H 17.1843 22.0816 26.5985
H 17.7665 22.1901 25.2053
O 5.2148 22.5446 18.6411
H 4.28691 22.6897 18.4562
H 5.49408 21.9085 17.9826
O 20.4041 19.1838 21.7999
H 20.2405 18.3001 21.4706
H 21.149 19.0848 22.3929
O 5.08442 22.6269 30.9873
H 5.38097 22.1505 31.7628
H 5.00021 21.9551 30.3106
O 32.0729 20.3151 13.1495
H 1.08308 19.5048 13.0632
H 31.175 20.0248 13.3103
O 9.68981 19.5896 11.4031
H 10.3802 19.9888 11.9324
H 8.90035 20.0823 11.6273
O 25.7017 15.3111 26.691
H 25.6932 14.3743 26.8872
H 24.7777 15.5485 26.6137
O 12.9219 21.8121 1.41787
H 12.2357 21.3502 0.936102
H 13.7348 21.5561 0.982158
O 29.6085 2.51133 28.5625
H 29.7291 3.45206 28.6918
H 30.3492 2.10976 29.0167
O 5.59176 16.9946 21.4795
H 4.74347 16.6596 21.7701
H 6.02397 16.2396 21.0803
O 13.5135 7.48814 11.3545
H 12.7664 7.5924 11.9437
H 14.2801 7.59407 11.9179
O 10.4407 7.55921 7.69713
H 9.80882 7.05121 7.18835
H 11.0113 6.90223 8.09595
O 1.61056 18.9207 7.09875
H 1.70169 18.0171 6.7962
H 1.9267 19.4516 6.3677
O 2.83941 4.44526 15.6256
H 3.33174 4.00947 16.3213
H 2.80907 3.8043 14.9153
O 6.87085 2.77455 10.9772
H 7.20385 1.8791 10.9181
H 6.72901 3.03844 10.0681
O 3.94195 21.0789 2.98291
H 3.72109 20.8533 2.07928
H 4.48758 21.8618 2.90829
O 22.5271 21.4116 4.79282
H 23.155 21.12 4.13175
H 21.8513 20.7338 4.79742
O 17.9843 12.9919 1.26391
H 18.182 13.5683 32.0178
H 18.2912 12.1295 0.984011
O 9.17642 4.34649 11.5551
H 9.39015 4.34354 12.4881
H 8.31187 3.93866 11.5056
O 31.7021 12.4516 7.33952
H 31.897 12.9155 8.1538
H 1.04403 12.0591 7.08146
O 15.6879 8.19506 12.9921
H 15.2816 8.73074 13.6733
H 15.856 7.35378 13.4166
O 23.3076 17.717 19.6997
H 23.5103 18.532 20.1589
H 24.1518 17.4133 19.366
O 26.4261 27.1384 5.70562
H 26.0236 27.9871 5.52103
H 26.1187 26.913 6.58364
O 16.8287 27.2132 4.08241
H 17.0718 28.1005 3.81838
H 16.5461 27.3025 4.99254
O 20.3771 26.6379 18.4646
H 20.8222 26.5856 19.3104
H 19.607 27.1812 18.6319
O 15.8406 10.3094 3.24296
H 16.2327 11.1213 3.5644
H 15.2674 10.5862 2.5281
O 22.6414 16.5502 22.1325
H 22.7565 17.3044 22.7106
H 22.813 16.8919 21.255
O 30.1755 26.0562 5.58179
H 29.4808 26.6995 5.44113
H 30.0123 25.3792 4.92505
O 4.93244 6.987 28.5695
H 5.08234 7.07487 29.5108
H 5.02161 7.87683 28.2282
O 21.1751 12.0426 25.0787
H 20.4819 12.1122 25.7352
H 21.6567 11.2517 25.3211
O 13.3871 30.7249 26.0749
H 13.3319 30.6835 27.0296
H 12.5729 31.1502 25.8056
O 16.5894 26.1776 21.2656
H 16.4106 26.2465 20.3278
H 17.281 26.8197 21.4258
O 15.3434 21.7184 29.2873
H 14.8774 22.5459 29.1677
H 15.6657 21.7524 30.188
O 12.9001 30.0431 7.80419
H 12.7418 30.9859 7.75676
H 13.8519 29.9566 7.75099
O 29.2179 3.72561 17.401
H 30.0024 4.21687 17.6448
H 28.5408 4.04264 17.9988
O 13.1866 26.5625 16.3719
H 12.7908 26.6287 17.2409
H 14.0122 26.1009 16.5187
O 21.0934 2.71318 23.202
H 21.2989 1.77897 23.1661
H 21.6293 3.10341 22.5115
O 5.86567 17.6512 17.6598
H 6.76569 17.3454 17.5471
H 5.43845 17.452 16.8267
O 1.52229 16.4862 5.92468
H 2.20645 15.8383 6.09309
H 0.7055 16.0321 6.13172
O 28.2192 19.0847 11.5091
H 28.1247 19.9408 11.0914
H 27.3634 18.6696 11.4019
O 6.6871 17.1813 7.27878
H 6.57944 16.6114 6.51728
H 7.49896 16.883 7.68886
O 26.4162 16.5532 0.765549
H 25.5546 16.191 0.971982
H 27.0319 15.9899 1.23434
O 9.97427 11.7514 29.0493
H 10.677 11.8987 28.4163
H 9.6591 12.6288 29.2663
O 15.7138 2.65289 3.05903
H 16.4403 2.02979 3.04881
H 14.9523 2.12961 3.3093
O 32.0207 26.7117 3.75904
H 31.4989 26.5398 4.54288
H 31.7714 27.5971 3.49417
O 23.7742 14.9219 9.60423
H 24.4952 15.3244 9.12016
H 23.2692 15.6617 9.94179
O 29.7596 21.0014 1.14019
H 28.8744 20.9391 1.49896
H 30.3201 20.6218 1.81696
O 19.0504 19.0845 17.8921
H 18.622 18.2731 17.6194
H 19.908 19.0574 17.4678
O 14.2299 16.9725 24.4619
H 13.6772 17.6403 24.868
H 15.0564 17.4211 24.2833
O 21.8828 28.8858 13.5439
H 22.0304 28.1575 12.9405
H 21.5482 28.4736 14.3403
O 20.9557 14.7727 3.40558
H 20.5849 15.3017 2.69923
H 21.6031 14.2154 2.97365
O 5.39155 19.2651 20.0155
H 5.5928 19.1031 19.0938
H 5.55732 18.4275 20.4481
O 23.1233 4.24032 30.7518
H 22.6023 3.44268 30.8448
H 23.2135 4.57349 31.6446
O 4.22027 8.69188 25.1068
H 3.66294 8.33729 25.7996
H 5.03831 8.20054 25.1819
O 17.8461 14.4376 11.4654
H 18.5437 14.8328 10.9426
H 18.2017 13.5926 11.7406
O 25.8834 19.1858 24.7769
H 26.4523 19.8481 24.3846
H 25.0108 19.3887 24.4397
O 17.6486 23.8147 19.1622
H 18.0176 22.9511 19.3475
H 16.883 23.6363 18.616
O 6.36545 10.0654 18.9347
H 6.89973 9.59406 18.2955
H 6.45024 10.9859 18.6863
O 8.59191 20.3067 1.73994
H 8.82682 21.2344 1.72034
H 8.09112 20.203 2.54906
O 1.60128 28.3446 0.823804
H 2.14035 28.7515 31.6376
H 2.12719 28.4118 1.62076
O 31.4228 12.2342 30.4381
H 0.865844 12.1417 30.6203
H 31.0264 11.4475 30.8125
O 28.4287 0.960899 22.0958
H 28.3638 31.6086 22.5418
H 28.6062 1.5891 22.7958
O 15.4646 30.6988 24.1631
H 16.1224 31.2221 24.621
H 14.7985 30.5169 24.826
O 1.39948 31.7126 8.56489
H 32.1927 31.9978 7.97629
H 0.977481 31.0858 9.15255
O 17.0895 6.98631 18.1523
H 18.0291 6.80616 18.1826
H 16.6971 6.30724 18.7011
O 14.6233 24.5076 22.0955
H 14.1096 25.2476 22.419
H 15.4242 24.9035 21.7518
O 23.144 2.46264 25.1519
H 22.858 1.72951 25.6968
H 22.392 2.65239 24.5909
O 24.4481 5.94761 23.0085
H 25.3346 5.96695 22.6479
H 23.9962 5.27554 22.4983
O 4.87077 26.2517 14.2462
H 4.80562 26.8402 14.9983
H 4.71869 25.3795 14.61
O 21.8339 15.5482 19.2065
H 21.2695 15.6474 18.4398
H 22.1102 16.4398 19.4181
O 22.5121 4.29494 6.08765
H 22.2669 4.70287 6.91815
H 22.8852 3.44933 6.33655
O 10.9598 3.48376 28.0972
H 11.7367 3.65845 27.566
H 11.1153 3.95901 28.9134
O 20.276 6.32817 24.3522
H 20.1992 7.15563 24.8273
H 21.2159 6.14831 24.3339
O 9.53925 20.6398 28.1915
H 10.1605 20.2431 28.8021
H 8.68086 20.3496 28.5
O 6.37824 7.91814 9.01696
H 5.91323 7.23169 8.53864
H 5.91705 7.98246 9.85326
O 10.6197 28.4237 29.3354
H 10.172 29.2636 29.4371
H 10.0986 27.9509 28.6865
O 14.0629 16.0362 31.7776
H 13.8573 16.8532 0.739914
H 14.4882 16.3135 30.9661
O 20.9148 9.75212 1.58666
H 20.3428 10.422 1.21208
H 20.3179 9.06458 1.88196
O 2.66573 5.36024 3.47064
H 2.40941 5.99499 2.80159
H 1.99278 5.43926 4.14676
O 19.6019 12.2021 12.0541
H 19.8717 12.5635 12.8984
H 20.4128 12.1404 11.5493
O 22.7363 21.4268 8.04972
H 23.2125 22.256 8.0078
H 21.8546 21.6407 7.74435
O 26.8612 24.9144 29.1878
H 26.8487 25.6729 29.7716
H 27.3538 24.2494 29.6689
O 21.987 20.2639 32.0703
H 21.5475 20.9643 31.588
H 22.9192 20.4666 31.9915
O 13.0949 28.3228 20.697
H 13.052 29.2437 20.9547
H 13.1809 28.3441 19.7439
O 14.8976 30.0627 17.3777
H 14.1486 30.6586 17.3662
H 15.3955 30.288 16.5918
O 14.4741 28.0772 2.96555
H 14.5679 28.3638 2.05712
H 15.359 27.8265 3.23072
O 31.389 28.7383 25.6621
H 31.8664 28.1725 26.2689
H 32.0723 29.21 25.1859
O 1.78436 2.07235 13.1609
H 2.60961 1.59005 13.2117
H 1.78691 2.46085 12.2861
O 27.4698 5.46118 11.6021
H 26.7781 5.76699 12.1888
H 27.5913 4.54042 11.8338
O 3.48959 4.01679 19.292
H 3.22348 4.90232 19.5395
H 2.66722 3.5588 19.1183
O 31.4468 8.26565 5.68453
H 31.8259 8.17588 4.81016
H 32.1456 8.65525 6.21012
O 3.29988 12.2176 20.831
H 3.56229 11.345 21.1243
H 3.21705 12.7269 21.6372
O 3.27146 20.4254 5.6571
H 3.51859 20.5847 4.74618
H 4.10417 20.376 6.12655
O 16.3639 6.1568 23.427
H 15.7371 6.62696 23.9767
H 15.8418 5.82746 22.6954
O 20.7813 21.9006 25.3716
H 21.4649 22.5513 25.5317
H 20.5042 22.0605 24.4695
O 29.6867 7.58439 2.61524
H 29.7042 6.73066 2.18273
H 30.5218 7.9893 2.38094
O 1.50172 24.1834 23.2174
H 0.81161 24.4253 23.8351
H 1.04713 23.7021 22.5261
O 17.8275 21.5467 2.99934
H 18.2005 20.7475 2.62733
H 18.5427 21.9324 3.50529
O 6.68616 22.0179 23.388
H 6.88111 22.0258 22.4509
H 5.82344 22.4267 23.4572
O 21.7678 27.912 8.52551
H 21.4916 27.6772 7.63963
H 21.5625 28.8438 8.60189
O 27.9398 13.7237 25.5082
H 27.4531 13.5681 26.3176
H 27.896 12.8911 25.038
O 22.2789 3.56004 15.845
H 21.3789 3.42962 16.1439
H 22.2996 4.46497 15.5337
O 18.9741 18.2619 25.5457
H 19.9211 18.146 25.4677
H 18.6189 17.3744 25.4959
O 11.0348 30.8407 18.3655
H 10.1805 31.2161 18.1522
H 11.6585 31.3595 17.8574
O 14.8959 29.4322 32.0349
H 14.3077 29.2106 31.313
H 15.7737 29.3593 31.6603
O 19.7297 6.13161 17.8609
H 20.4448 6.73695 17.6646
H 19.8523 5.90651 18.7832
O 27.2447 4.0579 30.2272
H 28.1097 4.34528 29.935
H 27.2062 3.13177 29.9884
O 5.23517 12.1545 13.4857
H 6.00836 11.6479 13.2373
H 5.35634 12.3359 14.4177
O 10.2715 31.8997 11.8843
H 10.7085 31.2802 11.3
H 10.7827 1.21308 11.8058
O 6.80561 31.4015 5.65471
H 6.36077 31.95 6.30087
H 7.72484 31.6625 5.71045
O 20.0853 5.25445 20.7146
H 19.9123 6.08537 21.1572
H 20.9477 4.98787 21.0331
O 6.55843 4.98743 27.4899
H 5.7699 4.45448 27.3879
H 6.23515 5.84228 27.7745
O 12.9279 26.538 22.6956
H 12.8503 27.1525 21.9658
H 13.2153 27.0764 23.4331
O 3.91061 31.7881 30.4236
H 3.63272 1.16593 30.7103
H 4.2853 31.9301 29.5544
O 20.6242 31.8592 4.19678
H 21.1743 1.11751 3.97219
H 21.171 31.0962 4.00952
O 23.0741 10.0209 25.2501
H 23.9682 9.9912 25.5905
H 22.5665 9.48775 25.8621
O 23.5599 13.6258 2.86509
H 24.01 13.1706 2.15347
H 24.154 13.5505 3.61184
O 3.97191 0.71161 10.0148
H 3.78392 31.2751 10.1507
H 3.11046 1.125 9.95773
O 26.7308 13.4735 9.33519
H 27.5796 13.5714 9.76664
H 26.812 12.6671 8.82596
O 12.9741 15.4368 17.9663
H 13.1205 14.6449 18.4837
H 12.5637 16.0497 18.5764
O 32.1349 11.0529 13.1562
H 31.7708 10.5358 13.8747
H 0.70821 11.9405 13.5085
O 26.5793 25.3167 11.8874
H 26.7389 24.9244 12.7458
H 26.9323 24.6819 11.264
O 1.96479 28.2064 5.76654
H 2.65702 27.7852 6.27615
H 1.96594 27.7413 4.92991
O 1.61487 2.54534 2.14578
H 2.0444 3.38935 2.28503
H 1.41141 2.23136 3.02684
O 0.978109 23.4327 13.6279
H 1.77665 23.1791 13.165
H 31.7847 22.8893 13.2392
O 15.2489 10.1507 24.743
H 15.4543 9.97334 25.6609
H 16.0268 9.86579 24.2636
O 25.3608 11.7294 11.0525
H 25.8466 12.4917 10.7375
H 25.2493 11.8865 11.9901
O 9.41477 23.985 27.3949
H 10.1829 23.9221 26.8272
H 8.74956 23.4529 26.9583
O 23.6489 8.24797 8.6473
H 24.5571 7.97057 8.7679
H 23.5681 8.40244 7.70611
O 30.271 1.645 14.3954
H 30.3891 2.59337 14.3418
H 30.8061 1.2958 13.6828
O 2.92027 16.7567 25.1494
H 2.89171 17.2531 25.9674
H 2.50413 17.3302 24.5059
O 24.1787 12.9478 5.73108
H 25.0872 13.2472 5.76457
H 24.1159 12.2931 6.42655
O 11.8863 16.9388 20.2991
H 11.003 16.9056 19.9317
H 12.1731 17.8403 20.1531
O 26.6594 8.22355 14.1818
H 26.6313 8.99094 14.7532
H 26.8428 8.57862 13.312
O 26.0708 3.11593 3.6167
H 26.18 3.60962 2.80395
H 26.0279 3.78494 4.29995
O 30.6235 31.5961 17.7752
H 30.8611 31.816 18.6761
H 31.2635 30.9344 17.513
O 1.29739 4.17025 7.90919
H 1.86838 3.68439 7.31409
H 32.0049 3.62731 7.98568
O 24.386 13.0772 25.2655
H 23.6584 12.5722 24.9023
H 24.5478 13.764 24.6187
O 9.65313 14.3161 4.23329
H 9.02916 14.5802 3.55715
H 10.0623 15.1343 4.51501
O 3.10285 23.2607 26.466
H 3.10187 23.4084 27.4117
H 2.39018 23.8085 26.1368
O 9.65535 23.9218 10.3811
H 9.37532 24.8282 10.2535
H 10.572 23.9128 10.1057
O 3.14096 21.5731 14.9076
H 3.66151 21.0527 15.5195
H 3.43219 21.2876 14.0416
O 24.5569 28.9622 14.2688
H 23.6212 28.8781 14.0854
H 24.6436 29.8192 14.6862
O 10.5576 24.6073 19.9593
H 11.3173 24.0462 19.8036
H 10.1793 24.7454 19.0909
O 8.26474 6.59742 31.1073
H 8.82576 7.26239 31.5065
H 7.83151 6.17298 31.8479
O 2.9781 22.6957 11.7848
H 3.04507 21.741 11.7699
H 3.85523 23.0014 11.5537
O 10.4507 21.8771 17.3201
H 11.2106 21.5174 16.8624
H 10.0035 22.4087 16.6616
O 0.710628 5.42967 5.50703
H 0.993709 5.27149 6.40763
H 31.5424 6.11872 5.58054
O 30.0265 25.4536 15.5635
H 29.6083 24.8565 16.1838
H 30.261 26.2191 16.0881
O 7.16369 19.1106 14.4708
H 7.01462 19.5851 13.653
H 7.85099 18.4786 14.2598
O 9.26181 29.9399 20.5855
H 10.0843 30.2214 20.185
H 9.34237 28.9887 20.6561
O 26.0249 2.73091 17.6969
H 25.1447 2.88103 18.042
H 26.5076 2.34753 18.4292
O 22.2941 29.5178 4.13275
H 22.0007 28.9562 4.85016
H 22.4415 28.9169 3.4024
O 5.31291 28.7497 12.2649
H 6.15808 28.4413 11.9381
H 5.24152 28.3706 13.1409
O 22.7758 20.7374 15.3599
H 22.5306 20.3073 14.5407
H 23.729 20.8131 15.3153
O 6.17799 26.2366 5.77929
H 5.35532 26.3147 6.26235
H 6.81204 26.7247 6.30462
O 13.0091 1.9229 0.823515
H 12.3708 2.57614 32.0292
H 12.708 1.1042 31.9216
O 4.92601 7.54278 31.6351
H 4.95922 6.65878 32.0007
H 3.99539 7.70292 31.4785
O 3.76557 28.3875 19.0566
H 2.94267 27.9567 19.288
H 3.89045 28.1842 18.1296
O 25.9364 17.4463 18.6564
H 25.8494 18.2388 18.1266
H 26.4386 16.8444 18.1072
O 6.38563 3.45805 8.38318
H 7.20944 3.65202 7.93603
H 5.82511 4.2096 8.19026
O 11.7778 7.8501 25.4781
H 11.8539 8.43521 26.2318
H 11.3998 7.04654 25.8353
O 31.6629 20.2327 2.99314
H 31.9429 20.4746 3.87592
H 31.8253 19.2908 2.9396
O 15.0578 4.14404 0.952064
H 15.3251 3.83919 1.81915
H 14.3432 3.55857 32.1937
O 27.0828 26.7066 21.7669
H 26.7343 26.123 22.4409
H 26.3078 27.0469 21.32
O 26.9831 7.21101 17.8579
H 26.4249 6.53599 18.244
H 26.3705 7.8627 17.5168
O 15.0782 2.87242 12.8068
H 15.3997 2.62602 13.6741
H 14.8806 2.03949 12.3785
O 3.61935 1.29473 24.4063
H 3.18311 1.06419 23.5861
H 3.38211 32.0832 25.0103
O 29.9773 3.14191 8.28799
H 29.9921 2.76674 9.16848
H 29.3406 3.85469 8.34154
O 29.073 24.017 17.858
H 29.5035 24.1516 18.7022
H 28.2652 24.5271 17.9165
O 2.90931 29.2232 30.0491
H 3.40612 30.0368 30.1355
H 2.25938 29.4096 29.3716
O 31.1526 19.7146 25.8194
H 30.8388 20.0998 26.6376
H 32.0297 20.0798 25.7031
O 30.3658 28.6643 1.82589
H 31.2439 28.5773 1.45503
H 29.8528 27.9834 1.39044
O 31.7651 8.92172 22.7461
H 1.08059 8.47062 22.9921
H 31.8855 9.81787 23.0602
O 18.5777 13.931 7.25977
H 18.0835 14.5727 6.74969
H 18.9169 14.4267 8.00503
O 21.0671 25.0511 31.6204
H 20.397 25.5071 32.1295
H 21.5952 25.7514 31.2372
O 15.0015 26.4621 13.4377
H 15.2085 26.1796 14.3285
H 14.4886 27.2621 13.5526
O 4.99529 5.92825 7.76919
H 4.69947 6.25908 6.92109
H 4.2048 5.91003 8.30866
O 26.442 27.4037 27.4689
H 26.8363 27.8903 28.1927
H 25.4994 27.5234 27.5847
O 28.3795 16.055 23.2744
H 28.6283 16.9396 23.5427
H 27.8418 16.1836 22.493
O 30.5199 17.2395 17.2654
H 30.1951 17.1795 18.1638
H 29.7844 16.952 16.7245
O 31.0172 25.7247 12.8716
H 31.5356 24.9875 13.1943
H 30.4768 25.9831 13.6182
O 13.1244 4.03593 26.5743
H 12.6881 4.02303 25.7224
H 14.0245 3.76977 26.3869
O 2.80023 15.2743 12.2916
H 2.77756 15.4415 11.3494
H 2.06736 14.6786 12.4473
O 13.5276 1.09237 3.44655
H 13.304 1.27743 2.53442
H 13.223 31.6887 3.59133
O 2.42152 11.0968 6.15023
H 2.78718 10.5527 5.45274
H 3.18618 11.4484 6.60617
O 17.7054 9.58967 20.6587
H 17.5733 9.44452 19.7218
H 18.0256 8.75017 20.9888
O 19.6692 16.7308 20.8939
H 19.3501 16.1863 20.1742
H 20.5221 16.3579 21.117
O 30.8405 24.8537 24.9553
H 30.5375 24.0187 24.5985
H 30.56 25.5052 24.3125
O 30.3244 2.32582 2.04347
H 30.0887 1.78987 1.28621
H 31.2811 2.35283 2.02997
O 8.80753 15.4342 23.052
H 9.33538 16.2299 23.1188
H 9.38152 14.7379 23.3712
O 30.8781 8.87873 20.1295
H 31.0629 8.99119 21.0619
H 30.0289 8.43764 20.1047
O 21.623 0.848396 19.4271
H 21.3034 31.4645 19.6432
H 20.9101 1.24767 18.9285
O 27.9047 23.1044 31.0864
H 28.8453 23.2272 31.2144
H 27.5114 23.3847 31.9128
O 29.8886 1.64321 25.9462
H 30.7993 1.76462 25.6776
H 29.8035 2.16082 26.7469
O 29.6501 18.5309 23.5388
H 29.7974 18.8988 24.4101
H 30.2547 19.0088 22.9712
O 27.0361 19.9845 2.964
H 27.617 19.2978 3.29139
H 26.9503 19.8005 2.02858
O 26.6867 3.46265 14.5964
H 26.3396 3.31695 15.4764
H 27.3199 4.17255 14.7026
O 16.2634 4.80565 19.6076
H 15.5509 5.05409 20.1965
H 16.9682 4.52201 20.1899
O 12.809 13.4396 11.4492
H 12.5334 14.3198 11.1933
H 12.115 13.1305 12.0314
O 8.49119 25.0621 18.0772
H 7.99552 24.5374 17.4485
H 7.83052 25.3988 18.6825
O 30.6475 30.3893 3.99829
H 30.2976 29.7979 3.33197
H 30.233 31.232 3.81284
O 5.45161 0.874607 28.0936
H 5.15426 1.24359 27.2619
H 5.67846 31.4602 27.8865
O 15.207 22.979 17.9791
H 14.8133 23.1121 17.1169
H 14.4739 23.047 18.5908
O 3.77259 26.3335 7.30569
H 3.49769 25.4386 7.50515
H 4.10258 26.6741 8.13714
O 18.361 10.4078 31.9435
H 18.5935 9.80138 31.2403
H 17.5215 10.7791 31.6723
O 4.30493 3.90104 11.8359
H 3.60284 3.46546 11.3526
H 5.09083 3.39771 11.6232
O 8.03415 13.8027 17.1541
H 8.15039 14.7497 17.2322
H 7.11124 13.6923 16.9255
O 7.04963 20.2053 11.9284
H 6.81482 20.9953 11.4416
H 6.43126 19.5419 11.6221