created by fftool

1785 atoms
1110 bonds
555 angles
4 atom types
1 bond types
1 angle types
0.000000 27.314931 xlo xhi
0.000000 27.314931 ylo yhi
0.000000 27.314931 zlo zhi
Atoms

      1       1    1  -1.112800  8.220797e+00  1.577105e+01  2.581453e+01  # Ow water
      2       1    2   0.556400  8.707468e+00  1.518008e+01  2.523996e+01  # Hw water
      3       1    2   0.556400  8.721605e+00  1.658665e+01  2.579966e+01  # Hw water
      4       2    1  -1.112800  1.051963e+01  2.076951e+01  1.987759e+01  # Ow water
      5       2    2   0.556400  1.133205e+01  2.095960e+01  2.034672e+01  # Hw water
      6       2    2   0.556400  1.020431e+01  1.995292e+01  2.026486e+01  # Hw water
      7       3    1  -1.112800  3.998144e+00  3.023682e+00  1.663965e+00  # Ow water
      8       3    2   0.556400  4.892855e+00  3.323817e+00  1.503842e+00  # Hw water
      9       3    2   0.556400  4.028024e+00  2.081264e+00  1.499089e+00  # Hw water
     10       4    1  -1.112800  4.622115e+00  3.879902e+00  1.360818e+01  # Ow water
     11       4    2   0.556400  3.792869e+00  3.841251e+00  1.313165e+01  # Hw water
     12       4    2   0.556400  4.428479e+00  3.486612e+00  1.445910e+01  # Hw water
     13       5    1  -1.112800  2.377687e+01  1.710994e+01  1.747294e+01  # Ow water
     14       5    2   0.556400  2.391455e+01  1.803807e+01  1.766228e+01  # Hw water
     15       5    2   0.556400  2.375750e+01  1.668989e+01  1.833283e+01  # Hw water
     16       6    1  -1.112800  1.729268e+01  2.581388e+01  2.487905e+01  # Ow water
     17       6    2   0.556400  1.666934e+01  2.521457e+01  2.446857e+01  # Hw water
     18       6    2   0.556400  1.723185e+01  2.561980e+01  2.581440e+01  # Hw water
     19       7    1  -1.112800  1.008058e+01  1.500478e+00  2.022345e+01  # Ow water
     20       7    2   0.556400  9.125889e+00  1.566769e+00  2.020326e+01  # Hw water
     21       7    2   0.556400  1.030699e+01  1.578078e+00  2.115024e+01  # Hw water
     22       8    1  -1.112800  4.477172e+00  4.324633e+00  2.279679e+01  # Ow water
     23       8    2   0.556400  4.640489e+00  3.540269e+00  2.227302e+01  # Hw water
     24       8    2   0.556400  4.411518e+00  4.003339e+00  2.369606e+01  # Hw water
     25       9    1  -1.112800  9.059120e+00  2.581463e+01  1.152853e+01  # Ow water
     26       9    2   0.556400  8.268373e+00  2.572322e+01  1.099693e+01  # Hw water
     27       9    2   0.556400  9.777587e+00  2.578730e+01  1.089663e+01  # Hw water
     28      10    1  -1.112800  6.212456e+00  8.411039e+00  1.155050e+01  # Ow water
     29      10    2   0.556400  6.400407e+00  7.535612e+00  1.188893e+01  # Hw water
     30      10    2   0.556400  6.714448e+00  8.999287e+00  1.211459e+01  # Hw water
     31      11    1  -1.112800  1.047381e+01  6.502825e+00  2.034184e+00  # Ow water
     32      11    2   0.556400  1.120286e+01  6.875606e+00  1.538456e+00  # Hw water
     33      11    2   0.556400  9.701100e+00  6.688068e+00  1.500481e+00  # Hw water
     34      12    1  -1.112800  2.296047e+01  1.498674e+01  1.178408e+01  # Ow water
     35      12    2   0.556400  2.241146e+01  1.421664e+01  1.163657e+01  # Hw water
     36      12    2   0.556400  2.369269e+01  1.487932e+01  1.117701e+01  # Hw water
     37      13    1  -1.112800  1.350672e+01  2.575260e+01  6.756928e+00  # Ow water
     38      13    2   0.556400  1.274929e+01  2.578966e+01  6.172839e+00  # Hw water
     39      13    2   0.556400  1.426299e+01  2.581417e+01  6.173416e+00  # Hw water
     40      14    1  -1.112800  2.230449e+01  1.204615e+01  1.735738e+01  # Ow water
     41      14    2   0.556400  2.170959e+01  1.159610e+01  1.675755e+01  # Hw water
     42      14    2   0.556400  2.302574e+01  1.234286e+01  1.680241e+01  # Hw water
     43      15    1  -1.112800  2.261958e+01  4.217388e+00  1.762113e+01  # Ow water
     44      15    2   0.556400  2.266033e+01  5.108065e+00  1.796936e+01  # Hw water
     45      15    2   0.556400  2.353168e+01  3.928302e+00  1.759411e+01  # Hw water
     46      16    1  -1.112800  2.155479e+01  6.544488e+00  1.535472e+01  # Ow water
     47      16    2   0.556400  2.248041e+01  6.736653e+00  1.550482e+01  # Hw water
     48      16    2   0.556400  2.146885e+01  5.611184e+00  1.554911e+01  # Hw water
     49      17    1  -1.112800  1.119987e+01  1.501616e+00  1.522009e+01  # Ow water
     50      17    2   0.556400  1.055572e+01  1.500017e+00  1.592812e+01  # Hw water
     51      17    2   0.556400  1.204658e+01  1.523448e+00  1.566601e+01  # Hw water
     52      18    1  -1.112800  3.697431e+00  2.352009e+01  1.655598e+01  # Ow water
     53      18    2   0.556400  3.867340e+00  2.386081e+01  1.567776e+01  # Hw water
     54      18    2   0.556400  3.917137e+00  2.259018e+01  1.649929e+01  # Hw water
     55      19    1  -1.112800  1.500609e+00  1.043414e+01  2.503171e+01  # Ow water
     56      19    2   0.556400  1.963493e+00  1.013436e+01  2.581408e+01  # Hw water
     57      19    2   0.556400  1.562428e+00  9.700244e+00  2.442031e+01  # Hw water
     58      20    1  -1.112800  5.086785e+00  2.553273e+01  2.497482e+01  # Ow water
     59      20    2   0.556400  5.380193e+00  2.462687e+01  2.487703e+01  # Hw water
     60      20    2   0.556400  5.451674e+00  2.581394e+01  2.581387e+01  # Hw water
     61      21    1  -1.112800  3.403568e+00  1.220108e+01  7.833171e+00  # Ow water
     62      21    2   0.556400  3.995403e+00  1.251193e+01  7.148096e+00  # Hw water
     63      21    2   0.556400  2.902092e+00  1.149991e+01  7.417104e+00  # Hw water
     64      22    1  -1.112800  2.495364e+01  9.564385e+00  1.214593e+01  # Ow water
     65      22    2   0.556400  2.581435e+01  9.251203e+00  1.242399e+01  # Hw water
     66      22    2   0.556400  2.444600e+01  8.767343e+00  1.199340e+01  # Hw water
     67      23    1  -1.112800  1.548632e+01  6.069142e+00  1.237225e+01  # Ow water
     68      23    2   0.556400  1.557085e+01  6.383187e+00  1.147199e+01  # Hw water
     69      23    2   0.556400  1.632719e+01  5.652607e+00  1.256106e+01  # Hw water
     70      24    1  -1.112800  1.774808e+01  2.427337e+00  1.346012e+01  # Ow water
     71      24    2   0.556400  1.717135e+01  2.970296e+00  1.292271e+01  # Hw water
     72      24    2   0.556400  1.762888e+01  1.540697e+00  1.311969e+01  # Hw water
     73      25    1  -1.112800  9.759128e+00  2.558734e+01  5.202261e+00  # Ow water
     74      25    2   0.556400  1.004644e+01  2.581464e+01  6.086578e+00  # Hw water
     75      25    2   0.556400  1.050532e+01  2.580573e+01  4.643927e+00  # Hw water
     76      26    1  -1.112800  2.246976e+00  1.761535e+01  2.165786e+01  # Ow water
     77      26    2   0.556400  1.500832e+00  1.704653e+01  2.184744e+01  # Hw water
     78      26    2   0.556400  2.860715e+00  1.705561e+01  2.118221e+01  # Hw water
     79      27    1  -1.112800  1.251652e+01  2.545904e+01  2.003266e+01  # Ow water
     80      27    2   0.556400  1.339709e+01  2.581475e+01  2.015223e+01  # Hw water
     81      27    2   0.556400  1.248717e+01  2.519503e+01  1.911306e+01  # Hw water
     82      28    1  -1.112800  1.977018e+01  1.833931e+01  2.473536e+01  # Ow water
     83      28    2   0.556400  1.917190e+01  1.861001e+01  2.543180e+01  # Hw water
     84      28    2   0.556400  1.921963e+01  1.785315e+01  2.412153e+01  # Hw water
     85      29    1  -1.112800  1.092918e+01  1.515955e+00  2.490724e+01  # Ow water
     86      29    2   0.556400  1.012508e+01  1.500222e+00  2.438820e+01  # Hw water
     87      29    2   0.556400  1.062833e+01  1.572435e+00  2.581418e+01  # Hw water
     88      30    1  -1.112800  1.810176e+01  1.925397e+01  9.441209e+00  # Ow water
     89      30    2   0.556400  1.879958e+01  1.978046e+01  9.831192e+00  # Hw water
     90      30    2   0.556400  1.829427e+01  1.835793e+01  9.717380e+00  # Hw water
     91      31    1  -1.112800  1.564102e+00  1.443278e+01  1.087102e+01  # Ow water
     92      31    2   0.556400  1.500006e+00  1.359196e+01  1.132393e+01  # Hw water
     93      31    2   0.556400  1.606682e+00  1.508128e+01  1.157377e+01  # Hw water
     94      32    1  -1.112800  1.094122e+01  3.183635e+00  1.821930e+01  # Ow water
     95      32    2   0.556400  1.131145e+01  3.451218e+00  1.737813e+01  # Hw water
     96      32    2   0.556400  1.001076e+01  3.048448e+00  1.803986e+01  # Hw water
     97      33    1  -1.112800  5.191147e+00  2.353654e+01  1.931121e+01  # Ow water
     98      33    2   0.556400  5.613117e+00  2.334602e+01  1.847343e+01  # Hw water
     99      33    2   0.556400  5.112610e+00  2.268420e+01  1.973967e+01  # Hw water
    100      34    1  -1.112800  4.318710e+00  1.699703e+01  1.789208e+01  # Ow water
    101      34    2   0.556400  3.774961e+00  1.710909e+01  1.867183e+01  # Hw water
    102      34    2   0.556400  4.054593e+00  1.614905e+01  1.753516e+01  # Hw water
    103      35    1  -1.112800  2.581490e+01  1.199461e+01  1.137215e+01  # Ow water
    104      35    2   0.556400  2.572771e+01  1.288098e+01  1.102148e+01  # Hw water
    105      35    2   0.556400  2.577686e+01  1.210745e+01  1.232191e+01  # Hw water
    106      36    1  -1.112800  1.394663e+01  5.785314e+00  7.804540e+00  # Ow water
    107      36    2   0.556400  1.313356e+01  5.863064e+00  7.305430e+00  # Hw water
    108      36    2   0.556400  1.366199e+01  5.686264e+00  8.713054e+00  # Hw water
    109      37    1  -1.112800  5.071914e+00  1.526396e+00  1.651464e+01  # Ow water
    110      37    2   0.556400  4.176438e+00  1.500011e+00  1.617751e+01  # Hw water
    111      37    2   0.556400  5.623557e+00  1.500025e+00  1.573283e+01  # Hw water
    112      38    1  -1.112800  2.305754e+01  1.903866e+01  1.115432e+01  # Ow water
    113      38    2   0.556400  2.354700e+01  1.951533e+01  1.182473e+01  # Hw water
    114      38    2   0.556400  2.268040e+01  1.829126e+01  1.161842e+01  # Hw water
    115      39    1  -1.112800  2.311720e+01  7.356016e+00  2.032464e+01  # Ow water
    116      39    2   0.556400  2.219760e+01  7.284591e+00  2.006877e+01  # Hw water
    117      39    2   0.556400  2.316603e+01  8.174547e+00  2.081845e+01  # Hw water
    118      40    1  -1.112800  1.966661e+01  9.709837e+00  1.178550e+01  # Ow water
    119      40    2   0.556400  1.962092e+01  1.066208e+01  1.187132e+01  # Hw water
    120      40    2   0.556400  2.060278e+01  9.511516e+00  1.180767e+01  # Hw water
    121      41    1  -1.112800  2.521505e+01  2.038293e+01  1.750133e+01  # Ow water
    122      41    2   0.556400  2.575657e+01  2.108320e+01  1.786549e+01  # Hw water
    123      41    2   0.556400  2.581399e+01  1.964276e+01  1.740319e+01  # Hw water
    124      42    1  -1.112800  1.942346e+00  9.018363e+00  2.072314e+00  # Ow water
    125      42    2   0.556400  1.500164e+00  8.390635e+00  1.500770e+00  # Hw water
    126      42    2   0.556400  2.706589e+00  9.302509e+00  1.570895e+00  # Hw water
    127      43    1  -1.112800  1.925520e+01  9.718894e+00  1.918836e+01  # Ow water
    128      43    2   0.556400  1.930639e+01  8.775376e+00  1.934128e+01  # Hw water
    129      43    2   0.556400  1.901478e+01  9.799731e+00  1.826538e+01  # Hw water
    130      44    1  -1.112800  6.414794e+00  1.558220e+01  1.482309e+01  # Ow water
    131      44    2   0.556400  6.089618e+00  1.470155e+01  1.463613e+01  # Hw water
    132      44    2   0.556400  6.164912e+00  1.574212e+01  1.573315e+01  # Hw water
    133      45    1  -1.112800  1.504273e+00  1.790105e+01  2.086710e+00  # Ow water
    134      45    2   0.556400  1.500068e+00  1.714464e+01  1.500149e+00  # Hw water
    135      45    2   0.556400  1.525102e+00  1.865834e+01  1.501629e+00  # Hw water
    136      46    1  -1.112800  2.440462e+00  2.573885e+01  2.554337e+01  # Ow water
    137      46    2   0.556400  2.673051e+00  2.485088e+01  2.581476e+01  # Hw water
    138      46    2   0.556400  1.507837e+00  2.581489e+01  2.574500e+01  # Hw water
    139      47    1  -1.112800  2.521593e+01  2.153391e+01  1.500224e+00  # Ow water
    140      47    2   0.556400  2.578746e+01  2.230158e+01  1.516333e+00  # Hw water
    141      47    2   0.556400  2.581449e+01  2.078815e+01  1.542707e+00  # Hw water
    142      48    1  -1.112800  4.048525e+00  7.016573e+00  3.872221e+00  # Ow water
    143      48    2   0.556400  3.647551e+00  7.856572e+00  3.648947e+00  # Hw water
    144      48    2   0.556400  3.818709e+00  6.877603e+00  4.790971e+00  # Hw water
    145      49    1  -1.112800  1.358209e+01  1.500524e+00  1.873868e+01  # Ow water
    146      49    2   0.556400  1.349000e+01  2.031074e+00  1.794731e+01  # Hw water
    147      49    2   0.556400  1.271686e+01  1.526748e+00  1.914723e+01  # Hw water
    148      50    1  -1.112800  1.507015e+00  5.577122e+00  1.840730e+01  # Ow water
    149      50    2   0.556400  1.500004e+00  6.460200e+00  1.803804e+01  # Hw water
    150      50    2   0.556400  1.500011e+00  4.998198e+00  1.764505e+01  # Hw water
    151      51    1  -1.112800  1.726683e+00  2.107910e+01  2.581386e+01  # Ow water
    152      51    2   0.556400  1.501265e+00  2.200511e+01  2.572480e+01  # Hw water
    153      51    2   0.556400  1.500114e+00  2.069445e+01  2.496714e+01  # Hw water
    154      52    1  -1.112800  2.455034e+01  5.976493e+00  8.802738e+00  # Ow water
    155      52    2   0.556400  2.547030e+01  5.805562e+00  9.004411e+00  # Hw water
    156      52    2   0.556400  2.424987e+01  6.542351e+00  9.513902e+00  # Hw water
    157      53    1  -1.112800  8.691271e+00  2.395514e+00  1.021554e+01  # Ow water
    158      53    2   0.556400  8.946705e+00  1.500485e+00  9.992145e+00  # Hw water
    159      53    2   0.556400  8.748798e+00  2.874883e+00  9.389025e+00  # Hw water
    160      54    1  -1.112800  9.720348e+00  9.675723e+00  1.670362e+01  # Ow water
    161      54    2   0.556400  1.023075e+01  9.089981e+00  1.726274e+01  # Hw water
    162      54    2   0.556400  9.800127e+00  9.300361e+00  1.582671e+01  # Hw water
    163      55    1  -1.112800  1.279573e+01  1.847350e+01  2.032128e+01  # Ow water
    164      55    2   0.556400  1.283854e+01  1.809323e+01  2.119866e+01  # Hw water
    165      55    2   0.556400  1.208860e+01  1.799630e+01  1.988714e+01  # Hw water
    166      56    1  -1.112800  4.252694e+00  6.416737e+00  1.854128e+01  # Ow water
    167      56    2   0.556400  5.056129e+00  6.698000e+00  1.810355e+01  # Hw water
    168      56    2   0.556400  3.895761e+00  7.217505e+00  1.892547e+01  # Hw water
    169      57    1  -1.112800  3.837423e+00  2.244361e+01  1.018696e+01  # Ow water
    170      57    2   0.556400  3.651153e+00  2.338211e+01  1.021422e+01  # Hw water
    171      57    2   0.556400  4.552438e+00  2.235907e+01  9.556222e+00  # Hw water
    172      58    1  -1.112800  1.891909e+01  2.182755e+01  1.283542e+01  # Ow water
    173      58    2   0.556400  1.821011e+01  2.156123e+01  1.342079e+01  # Hw water
    174      58    2   0.556400  1.893492e+01  2.278265e+01  1.289670e+01  # Hw water
    175      59    1  -1.112800  2.352244e+00  1.303540e+01  1.698613e+01  # Ow water
    176      59    2   0.556400  2.907717e+00  1.225587e+01  1.698382e+01  # Hw water
    177      59    2   0.556400  2.945890e+00  1.375375e+01  1.676753e+01  # Hw water
    178      60    1  -1.112800  7.735124e+00  1.948998e+01  7.465735e+00  # Ow water
    179      60    2   0.556400  7.012240e+00  1.891494e+01  7.716722e+00  # Hw water
    180      60    2   0.556400  7.361737e+00  2.006871e+01  6.800988e+00  # Hw water
    181      61    1  -1.112800  9.117104e+00  7.445490e+00  1.370152e+01  # Ow water
    182      61    2   0.556400  8.313561e+00  7.848658e+00  1.403016e+01  # Hw water
    183      61    2   0.556400  9.009462e+00  7.436438e+00  1.275043e+01  # Hw water
    184      62    1  -1.112800  1.500086e+00  2.342126e+01  2.300230e+01  # Ow water
    185      62    2   0.556400  1.500432e+00  2.395578e+01  2.379635e+01  # Hw water
    186      62    2   0.556400  1.817468e+00  2.256501e+01  2.328926e+01  # Hw water
    187      63    1  -1.112800  6.553613e+00  6.960499e+00  7.025638e+00  # Ow water
    188      63    2   0.556400  7.294256e+00  6.629973e+00  6.517278e+00  # Hw water
    189      63    2   0.556400  5.792830e+00  6.504790e+00  6.665407e+00  # Hw water
    190      64    1  -1.112800  1.458297e+01  1.487296e+01  1.740256e+00  # Ow water
    191      64    2   0.556400  1.538947e+01  1.441662e+01  1.500365e+00  # Hw water
    192      64    2   0.556400  1.388311e+01  1.426572e+01  1.500100e+00  # Hw water
    193      65    1  -1.112800  1.966979e+01  6.603518e+00  1.737256e+01  # Ow water
    194      65    2   0.556400  1.950646e+01  7.443543e+00  1.694372e+01  # Hw water
    195      65    2   0.556400  2.046190e+01  6.748278e+00  1.789009e+01  # Hw water
    196      66    1  -1.112800  1.886222e+01  1.537188e+00  1.013658e+01  # Ow water
    197      66    2   0.556400  1.875321e+01  1.500239e+00  9.186326e+00  # Hw water
    198      66    2   0.556400  1.805801e+01  1.947460e+00  1.045463e+01  # Hw water
    199      67    1  -1.112800  2.131821e+01  1.421117e+01  6.691397e+00  # Ow water
    200      67    2   0.556400  2.064884e+01  1.484242e+01  6.955388e+00  # Hw water
    201      67    2   0.556400  2.082681e+01  1.342315e+01  6.459500e+00  # Hw water
    202      68    1  -1.112800  1.632866e+01  1.944024e+01  1.541513e+01  # Ow water
    203      68    2   0.556400  1.569157e+01  1.984437e+01  1.482603e+01  # Hw water
    204      68    2   0.556400  1.707484e+01  2.003974e+01  1.540938e+01  # Hw water
    205      69    1  -1.112800  2.322847e+01  3.406265e+00  1.070134e+01  # Ow water
    206      69    2   0.556400  2.338463e+01  4.093117e+00  1.134947e+01  # Hw water
    207      69    2   0.556400  2.374328e+01  3.673330e+00  9.939849e+00  # Hw water
    208      70    1  -1.112800  4.790335e+00  1.226512e+01  2.546482e+01  # Ow water
    209      70    2   0.556400  5.339363e+00  1.156333e+01  2.581450e+01  # Hw water
    210      70    2   0.556400  3.896679e+00  1.193031e+01  2.553904e+01  # Hw water
    211      71    1  -1.112800  9.833190e+00  2.570896e+01  2.240612e+01  # Ow water
    212      71    2   0.556400  9.271953e+00  2.581487e+01  2.163799e+01  # Hw water
    213      71    2   0.556400  1.072301e+01  2.581488e+01  2.206964e+01  # Hw water
    214      72    1  -1.112800  1.186258e+01  2.579078e+01  2.490987e+01  # Ow water
    215      72    2   0.556400  1.093520e+01  2.581461e+01  2.467402e+01  # Hw water
    216      72    2   0.556400  1.187241e+01  2.547456e+01  2.581327e+01  # Hw water
    217      73    1  -1.112800  1.115453e+01  6.103736e+00  1.563470e+01  # Ow water
    218      73    2   0.556400  1.135320e+01  7.037509e+00  1.570419e+01  # Hw water
    219      73    2   0.556400  1.196578e+01  5.665946e+00  1.589248e+01  # Hw water
    220      74    1  -1.112800  1.085830e+01  1.151738e+01  2.581458e+01  # Ow water
    221      74    2   0.556400  1.173954e+01  1.188250e+01  2.573505e+01  # Hw water
    222      74    2   0.556400  1.028008e+01  1.227999e+01  2.579721e+01  # Hw water
    223      75    1  -1.112800  1.383833e+01  8.265002e+00  5.905330e+00  # Ow water
    224      75    2   0.556400  1.464749e+01  7.770921e+00  6.037114e+00  # Hw water
    225      75    2   0.556400  1.362203e+01  8.607078e+00  6.772757e+00  # Hw water
    226      76    1  -1.112800  1.367486e+01  1.391971e+01  3.967275e+00  # Ow water
    227      76    2   0.556400  1.370867e+01  1.414995e+01  4.895754e+00  # Hw water
    228      76    2   0.556400  1.281169e+01  1.352306e+01  3.849651e+00  # Hw water
    229      77    1  -1.112800  1.551438e+01  8.606688e+00  9.302164e+00  # Ow water
    230      77    2   0.556400  1.548099e+01  7.893582e+00  8.664518e+00  # Hw water
    231      77    2   0.556400  1.531201e+01  9.392413e+00  8.794313e+00  # Hw water
    232      78    1  -1.112800  2.229064e+01  2.247021e+01  1.316193e+01  # Ow water
    233      78    2   0.556400  2.159748e+01  2.300868e+01  1.354377e+01  # Hw water
    234      78    2   0.556400  2.308660e+01  2.274582e+01  1.361659e+01  # Hw water
    235      79    1  -1.112800  1.598840e+01  1.651784e+00  2.549663e+01  # Ow water
    236      79    2   0.556400  1.642056e+01  2.425023e+00  2.513390e+01  # Hw water
    237      79    2   0.556400  1.524176e+01  1.500164e+00  2.491717e+01  # Hw water
    238      80    1  -1.112800  2.135458e+01  2.092846e+01  2.180552e+01  # Ow water
    239      80    2   0.556400  2.119091e+01  2.115567e+01  2.272084e+01  # Hw water
    240      80    2   0.556400  2.230856e+01  2.091728e+01  2.172791e+01  # Hw water
    241      81    1  -1.112800  1.191789e+01  6.273424e+00  1.300067e+01  # Ow water
    242      81    2   0.556400  1.282612e+01  6.183285e+00  1.328916e+01  # Hw water
    243      81    2   0.556400  1.176053e+01  7.217580e+00  1.299481e+01  # Hw water
    244      82    1  -1.112800  1.461170e+01  2.001530e+00  1.516856e+00  # Ow water
    245      82    2   0.556400  1.404003e+01  1.500193e+00  2.098301e+00  # Hw water
    246      82    2   0.556400  1.543083e+01  1.506563e+00  1.500363e+00  # Hw water
    247      83    1  -1.112800  1.440293e+01  1.210063e+01  1.090009e+01  # Ow water
    248      83    2   0.556400  1.357024e+01  1.164246e+01  1.078634e+01  # Hw water
    249      83    2   0.556400  1.498909e+01  1.169538e+01  1.026101e+01  # Hw water
    250      84    1  -1.112800  5.829644e+00  2.577575e+01  9.741262e+00  # Ow water
    251      84    2   0.556400  5.042392e+00  2.579676e+01  9.197183e+00  # Hw water
    252      84    2   0.556400  5.501598e+00  2.581477e+01  1.063964e+01  # Hw water
    253      85    1  -1.112800  2.400226e+01  1.219743e+01  2.111364e+01  # Ow water
    254      85    2   0.556400  2.383657e+01  1.239598e+01  2.203524e+01  # Hw water
    255      85    2   0.556400  2.361228e+01  1.133349e+01  2.098039e+01  # Hw water
    256      86    1  -1.112800  8.023480e+00  2.492712e+01  2.579526e+01  # Ow water
    257      86    2   0.556400  8.384048e+00  2.581370e+01  2.580941e+01  # Hw water
    258      86    2   0.556400  8.791034e+00  2.435554e+01  2.581485e+01  # Hw water
    259      87    1  -1.112800  1.971467e+01  1.950335e+01  3.712214e+00  # Ow water
    260      87    2   0.556400  1.933949e+01  1.862395e+01  3.758290e+00  # Hw water
    261      87    2   0.556400  2.054245e+01  1.938699e+01  3.245886e+00  # Hw water
    262      88    1  -1.112800  2.446179e+01  4.678300e+00  6.382745e+00  # Ow water
    263      88    2   0.556400  2.384794e+01  5.392641e+00  6.212045e+00  # Hw water
    264      88    2   0.556400  2.390828e+01  3.945719e+00  6.653261e+00  # Hw water
    265      89    1  -1.112800  2.343751e+01  9.448803e+00  9.578810e+00  # Ow water
    266      89    2   0.556400  2.393800e+01  1.026453e+01  9.597138e+00  # Hw water
    267      89    2   0.556400  2.360083e+01  9.086554e+00  8.707988e+00  # Hw water
    268      90    1  -1.112800  2.064984e+01  1.514028e+01  2.299722e+01  # Ow water
    269      90    2   0.556400  2.057564e+01  1.436694e+01  2.355640e+01  # Hw water
    270      90    2   0.556400  2.108200e+01  1.579362e+01  2.354731e+01  # Hw water
    271      91    1  -1.112800  5.410167e+00  1.910779e+00  2.028753e+01  # Ow water
    272      91    2   0.556400  5.403985e+00  1.500201e+00  1.942289e+01  # Hw water
    273      91    2   0.556400  6.156831e+00  1.514072e+00  2.073625e+01  # Hw water
    274      92    1  -1.112800  1.873460e+01  2.036760e+00  6.489763e+00  # Ow water
    275      92    2   0.556400  1.812155e+01  1.500001e+00  5.987480e+00  # Hw water
    276      92    2   0.556400  1.952448e+01  1.500220e+00  6.556408e+00  # Hw water
    277      93    1  -1.112800  5.388462e+00  1.500696e+00  2.507531e+01  # Ow water
    278      93    2   0.556400  5.806287e+00  1.805540e+00  2.426987e+01  # Hw water
    279      93    2   0.556400  5.230859e+00  2.298226e+00  2.558061e+01  # Hw water
    280      94    1  -1.112800  1.538790e+01  2.529198e+01  1.725494e+01  # Ow water
    281      94    2   0.556400  1.465063e+01  2.581478e+01  1.757011e+01  # Hw water
    282      94    2   0.556400  1.576868e+01  2.581490e+01  1.654939e+01  # Hw water
    283      95    1  -1.112800  1.279483e+01  7.923553e+00  2.332462e+01  # Ow water
    284      95    2   0.556400  1.266930e+01  6.974751e+00  2.334028e+01  # Hw water
    285      95    2   0.556400  1.373346e+01  8.043858e+00  2.346861e+01  # Hw water
    286      96    1  -1.112800  1.621416e+01  4.779975e+00  2.118810e+00  # Ow water
    287      96    2   0.556400  1.644462e+01  5.473613e+00  1.500760e+00  # Hw water
    288      96    2   0.556400  1.638528e+01  3.967531e+00  1.642487e+00  # Hw water
    289      97    1  -1.112800  7.648063e+00  1.046785e+01  1.452271e+01  # Ow water
    290      97    2   0.556400  7.218083e+00  1.007355e+01  1.528157e+01  # Hw water
    291      97    2   0.556400  8.100334e+00  1.123455e+01  1.487462e+01  # Hw water
    292      98    1  -1.112800  2.564403e+01  2.041883e+01  2.271128e+01  # Ow water
    293      98    2   0.556400  2.581400e+01  2.104919e+01  2.341127e+01  # Hw water
    294      98    2   0.556400  2.472276e+01  2.055110e+01  2.248770e+01  # Hw water
    295      99    1  -1.112800  3.594442e+00  6.121886e+00  1.595372e+01  # Ow water
    296      99    2   0.556400  3.840390e+00  6.116952e+00  1.502867e+01  # Hw water
    297      99    2   0.556400  3.199433e+00  6.982673e+00  1.609243e+01  # Hw water
    298     100    1  -1.112800  2.486350e+01  6.249069e+00  1.766230e+01  # Ow water
    299     100    2   0.556400  2.464575e+01  6.232328e+00  1.673034e+01  # Hw water
    300     100    2   0.556400  2.581464e+01  6.144781e+00  1.768842e+01  # Hw water
    301     101    1  -1.112800  2.581419e+01  2.345948e+01  4.557913e+00  # Ow water
    302     101    2   0.556400  2.527493e+01  2.267077e+01  4.499867e+00  # Hw water
    303     101    2   0.556400  2.573887e+01  2.386577e+01  3.694502e+00  # Hw water
    304     102    1  -1.112800  3.917675e+00  1.691891e+01  2.095321e+00  # Ow water
    305     102    2   0.556400  3.864661e+00  1.615570e+01  1.520054e+00  # Hw water
    306     102    2   0.556400  4.024778e+00  1.766098e+01  1.500267e+00  # Hw water
    307     103    1  -1.112800  7.708222e+00  1.264292e+01  2.509683e+01  # Ow water
    308     103    2   0.556400  7.936439e+00  1.181925e+01  2.466589e+01  # Hw water
    309     103    2   0.556400  7.155882e+00  1.310043e+01  2.446292e+01  # Hw water
    310     104    1  -1.112800  7.528405e+00  2.202124e+01  1.565020e+00  # Ow water
    311     104    2   0.556400  7.472619e+00  2.266892e+01  2.267606e+00  # Hw water
    312     104    2   0.556400  8.461363e+00  2.181724e+01  1.500193e+00  # Hw water
    313     105    1  -1.112800  1.861339e+00  1.611142e+01  4.698098e+00  # Ow water
    314     105    2   0.556400  2.385849e+00  1.681150e+01  4.309503e+00  # Hw water
    315     105    2   0.556400  1.500014e+00  1.563804e+01  3.948712e+00  # Hw water
    316     106    1  -1.112800  2.226103e+01  6.662309e+00  1.264535e+01  # Ow water
    317     106    2   0.556400  2.278482e+01  6.660524e+00  1.184418e+01  # Hw water
    318     106    2   0.556400  2.221867e+01  7.583393e+00  1.290233e+01  # Hw water
    319     107    1  -1.112800  1.103895e+01  4.347830e+00  2.332233e+01  # Ow water
    320     107    2   0.556400  1.083086e+01  4.811459e+00  2.413348e+01  # Hw water
    321     107    2   0.556400  1.033704e+01  3.704039e+00  2.322704e+01  # Hw water
    322     108    1  -1.112800  2.308752e+00  1.902968e+00  1.421533e+01  # Ow water
    323     108    2   0.556400  2.999397e+00  1.500108e+00  1.368908e+01  # Hw water
    324     108    2   0.556400  1.500139e+00  1.500000e+00  1.389912e+01  # Hw water
    325     109    1  -1.112800  6.940878e+00  2.295781e+01  2.314411e+01  # Ow water
    326     109    2   0.556400  7.744903e+00  2.331317e+01  2.352292e+01  # Hw water
    327     109    2   0.556400  7.090879e+00  2.297947e+01  2.219899e+01  # Hw water
    328     110    1  -1.112800  2.294187e+01  2.501426e+01  8.789811e+00  # Ow water
    329     110    2   0.556400  2.245538e+01  2.581230e+01  8.996427e+00  # Hw water
    330     110    2   0.556400  2.235564e+01  2.430252e+01  9.046704e+00  # Hw water
    331     111    1  -1.112800  7.298109e+00  1.335409e+01  2.178245e+00  # Ow water
    332     111    2   0.556400  6.893143e+00  1.281184e+01  1.501341e+00  # Hw water
    333     111    2   0.556400  6.577425e+00  1.358363e+01  2.764891e+00  # Hw water
    334     112    1  -1.112800  7.151773e+00  4.478678e+00  2.339916e+01  # Ow water
    335     112    2   0.556400  7.332918e+00  3.993030e+00  2.259445e+01  # Hw water
    336     112    2   0.556400  7.945534e+00  4.990625e+00  2.355435e+01  # Hw water
    337     113    1  -1.112800  1.140745e+01  7.049129e+00  5.525040e+00  # Ow water
    338     113    2   0.556400  1.054388e+01  7.346715e+00  5.811255e+00  # Hw water
    339     113    2   0.556400  1.132853e+01  6.961826e+00  4.575103e+00  # Hw water
    340     114    1  -1.112800  4.308714e+00  2.580312e+01  4.943744e+00  # Ow water
    341     114    2   0.556400  3.389751e+00  2.581112e+01  5.211458e+00  # Hw water
    342     114    2   0.556400  4.798372e+00  2.581488e+01  5.766134e+00  # Hw water
    343     115    1  -1.112800  2.552113e+01  1.551664e+01  1.347384e+01  # Ow water
    344     115    2   0.556400  2.581473e+01  1.477149e+01  1.294965e+01  # Hw water
    345     115    2   0.556400  2.581490e+01  1.531560e+01  1.436239e+01  # Hw water
    346     116    1  -1.112800  4.135348e+00  1.274282e+01  1.984055e+00  # Ow water