created by fftool

13640 atoms
8880 bonds
4440 angles
4 atom types
1 bond types
1 angle types
0.000000 52.380283 xlo xhi
0.000000 52.380283 ylo yhi
0.000000 52.380283 zlo zhi
Atoms

      1       1    1  -1.112800  1.500979e+00  4.087037e+01  1.780377e+01  # Ow water
      2       1    2   0.556400  1.499943e+00  4.167359e+01  1.728314e+01  # Hw water
      3       1    2   0.556400  1.499969e+00  4.016498e+01  1.715674e+01  # Hw water
      4       2    1  -1.112800  3.515769e+01  1.253657e+01  3.463041e+01  # Ow water
      5       2    2   0.556400  3.521612e+01  1.291562e+01  3.375340e+01  # Hw water
      6       2    2   0.556400  3.587710e+01  1.190628e+01  3.466786e+01  # Hw water
      7       3    1  -1.112800  2.493085e+01  9.524546e+00  2.662481e+01  # Ow water
      8       3    2   0.556400  2.422825e+01  9.272967e+00  2.722422e+01  # Hw water
      9       3    2   0.556400  2.454069e+01  9.451936e+00  2.575376e+01  # Hw water
     10       4    1  -1.112800  3.088928e+00  1.004409e+01  1.044876e+01  # Ow water
     11       4    2   0.556400  2.405295e+00  9.417678e+00  1.068642e+01  # Hw water
     12       4    2   0.556400  3.908814e+00  9.588174e+00  1.063890e+01  # Hw water
     13       5    1  -1.112800  1.633915e+01  1.977591e+01  3.141109e+01  # Ow water
     14       5    2   0.556400  1.678552e+01  1.990868e+01  3.057482e+01  # Hw water
     15       5    2   0.556400  1.699442e+01  1.935694e+01  3.196903e+01  # Hw water
     16       6    1  -1.112800  9.656529e+00  3.100835e+01  3.799032e+01  # Ow water
     17       6    2   0.556400  8.939197e+00  3.044061e+01  3.827198e+01  # Hw water
     18       6    2   0.556400  9.531350e+00  3.110267e+01  3.704604e+01  # Hw water
     19       7    1  -1.112800  2.832915e+01  1.737614e+01  3.936623e+01  # Ow water
     20       7    2   0.556400  2.770460e+01  1.739433e+01  4.009138e+01  # Hw water
     21       7    2   0.556400  2.813627e+01  1.656056e+01  3.890378e+01  # Hw water
     22       8    1  -1.112800  3.617448e+01  2.453115e+01  4.353940e+01  # Ow water
     23       8    2   0.556400  3.687077e+01  2.404933e+01  4.398580e+01  # Hw water
     24       8    2   0.556400  3.644364e+01  2.454595e+01  4.262094e+01  # Hw water
     25       9    1  -1.112800  1.027538e+01  1.371198e+01  1.853716e+01  # Ow water
     26       9    2   0.556400  1.025813e+01  1.370579e+01  1.758013e+01  # Hw water
     27       9    2   0.556400  9.991683e+00  1.459426e+01  1.877660e+01  # Hw water
     28      10    1  -1.112800  4.317801e+00  2.871247e+01  2.307007e+01  # Ow water
     29      10    2   0.556400  3.939471e+00  2.789354e+01  2.339015e+01  # Hw water
     30      10    2   0.556400  4.304279e+00  2.929580e+01  2.382887e+01  # Hw water
     31      11    1  -1.112800  3.479798e+00  3.046294e+01  5.088033e+01  # Ow water
     32      11    2   0.556400  2.532938e+00  3.032265e+01  5.088119e+01  # Hw water
     33      11    2   0.556400  3.581383e+00  3.141474e+01  5.088041e+01  # Hw water
     34      12    1  -1.112800  3.346891e+01  3.297505e+01  2.219300e+01  # Ow water
     35      12    2   0.556400  3.421253e+01  3.275186e+01  2.163314e+01  # Hw water
     36      12    2   0.556400  3.275173e+01  3.243098e+01  2.186763e+01  # Hw water
     37      13    1  -1.112800  3.962492e+01  2.795134e+01  4.113941e+01  # Ow water
     38      13    2   0.556400  4.033590e+01  2.767964e+01  4.171985e+01  # Hw water
     39      13    2   0.556400  3.929316e+01  2.876041e+01  4.152873e+01  # Hw water
     40      14    1  -1.112800  3.251077e+01  4.104921e+01  1.701312e+00  # Ow water
     41      14    2   0.556400  3.271527e+01  4.120808e+01  2.622814e+00  # Hw water
     42      14    2   0.556400  3.208638e+01  4.019126e+01  1.694124e+00  # Hw water
     43      15    1  -1.112800  3.141240e+01  2.222536e+01  5.088030e+01  # Ow water
     44      15    2   0.556400  3.047515e+01  2.217156e+01  5.069350e+01  # Hw water
     45      15    2   0.556400  3.173359e+01  2.291538e+01  5.029982e+01  # Hw water
     46      16    1  -1.112800  1.119098e+01  3.718645e+01  1.699384e+00  # Ow water
     47      16    2   0.556400  1.032852e+01  3.755376e+01  1.505821e+00  # Hw water
     48      16    2   0.556400  1.180359e+01  3.789436e+01  1.499896e+00  # Hw water
     49      17    1  -1.112800  2.557239e+01  3.108400e+01  1.840303e+01  # Ow water
     50      17    2   0.556400  2.556289e+01  3.051899e+01  1.763043e+01  # Hw water
     51      17    2   0.556400  2.645568e+01  3.145243e+01  1.842007e+01  # Hw water
     52      18    1  -1.112800  3.027816e+01  3.278869e+01  1.102113e+01  # Ow water
     53      18    2   0.556400  3.046812e+01  3.372574e+01  1.106661e+01  # Hw water
     54      18    2   0.556400  2.933609e+01  3.274243e+01  1.085806e+01  # Hw water
     55      19    1  -1.112800  1.951296e+01  2.691169e+01  1.498111e+00  # Ow water
     56      19    2   0.556400  1.938422e+01  2.769742e+01  2.029411e+00  # Hw water
     57      19    2   0.556400  1.926808e+01  2.618869e+01  2.075633e+00  # Hw water
     58      20    1  -1.112800  3.651628e+01  1.423090e+01  2.532388e+01  # Ow water
     59      20    2   0.556400  3.565383e+01  1.387210e+01  2.511491e+01  # Hw water
     60      20    2   0.556400  3.678499e+01  1.376432e+01  2.611529e+01  # Hw water
     61      21    1  -1.112800  1.436245e+01  1.045885e+01  1.051303e+01  # Ow water
     62      21    2   0.556400  1.345615e+01  1.015520e+01  1.046167e+01  # Hw water
     63      21    2   0.556400  1.470853e+01  1.033182e+01  9.629668e+00  # Hw water
     64      22    1  -1.112800  4.339258e+01  3.198878e+01  5.088061e+01  # Ow water
     65      22    2   0.556400  4.356005e+01  3.292053e+01  5.073907e+01  # Hw water
     66      22    2   0.556400  4.319871e+01  3.164464e+01  5.000870e+01  # Hw water
     67      23    1  -1.112800  1.966342e+01  6.542289e+00  2.166583e+01  # Ow water
     68      23    2   0.556400  2.053642e+01  6.311711e+00  2.134812e+01  # Hw water
     69      23    2   0.556400  1.935094e+01  7.204676e+00  2.104953e+01  # Hw water
     70      24    1  -1.112800  3.710674e+01  5.027660e+01  1.670628e+01  # Ow water
     71      24    2   0.556400  3.657643e+01  5.084488e+01  1.614766e+01  # Hw water
     72      24    2   0.556400  3.771409e+01  5.087149e+01  1.714612e+01  # Hw water
     73      25    1  -1.112800  4.185055e+01  9.216642e+00  3.725525e+01  # Ow water
     74      25    2   0.556400  4.253156e+01  9.138328e+00  3.658717e+01  # Hw water
     75      25    2   0.556400  4.103205e+01  9.065963e+00  3.678242e+01  # Hw water
     76      26    1  -1.112800  3.397298e+01  3.131988e+01  3.611443e+01  # Ow water
     77      26    2   0.556400  3.459477e+01  3.156875e+01  3.543057e+01  # Hw water
     78      26    2   0.556400  3.405716e+01  3.200597e+01  3.677656e+01  # Hw water
     79      27    1  -1.112800  1.503112e+01  1.657670e+00  1.451759e+01  # Ow water
     80      27    2   0.556400  1.427754e+01  1.499963e+00  1.394885e+01  # Hw water
     81      27    2   0.556400  1.579100e+01  1.536199e+00  1.394834e+01  # Hw water
     82      28    1  -1.112800  1.965378e+01  4.247014e+01  1.493773e+01  # Ow water
     83      28    2   0.556400  1.894556e+01  4.281236e+01  1.548320e+01  # Hw water
     84      28    2   0.556400  1.928500e+01  4.244295e+01  1.405484e+01  # Hw water
     85      29    1  -1.112800  3.073625e+01  6.381412e+00  1.391222e+01  # Ow water
     86      29    2   0.556400  3.143331e+01  6.394503e+00  1.456809e+01  # Hw water
     87      29    2   0.556400  3.119524e+01  6.305836e+00  1.307566e+01  # Hw water
     88      30    1  -1.112800  1.532129e+00  2.526242e+01  4.727698e+01  # Ow water
     89      30    2   0.556400  1.504332e+00  2.556890e+01  4.637060e+01  # Hw water
     90      30    2   0.556400  1.519152e+00  2.430780e+01  4.720804e+01  # Hw water
     91      31    1  -1.112800  3.771397e+01  2.614913e+01  3.490600e+01  # Ow water
     92      31    2   0.556400  3.780420e+01  2.593316e+01  3.583414e+01  # Hw water
     93      31    2   0.556400  3.753101e+01  2.708861e+01  3.489488e+01  # Hw water
     94      32    1  -1.112800  3.919368e+01  1.392082e+01  2.542835e+01  # Ow water
     95      32    2   0.556400  3.888664e+01  1.352943e+01  2.461057e+01  # Hw water
     96      32    2   0.556400  3.894022e+01  1.484159e+01  2.536374e+01  # Hw water
     97      33    1  -1.112800  2.081225e+01  2.420771e+01  1.563800e+01  # Ow water
     98      33    2   0.556400  2.048297e+01  2.389505e+01  1.479536e+01  # Hw water
     99      33    2   0.556400  2.094677e+01  2.341228e+01  1.615320e+01  # Hw water
    100      34    1  -1.112800  3.622339e+01  3.636071e+01  3.193175e+01  # Ow water
    101      34    2   0.556400  3.565080e+01  3.584900e+01  3.136032e+01  # Hw water
    102      34    2   0.556400  3.679266e+01  3.684260e+01  3.133180e+01  # Hw water
    103      35    1  -1.112800  3.988770e+01  4.998374e+00  2.124944e+01  # Ow water
    104      35    2   0.556400  3.963196e+01  5.555717e+00  2.198442e+01  # Hw water
    105      35    2   0.556400  4.066622e+01  4.535368e+00  2.155888e+01  # Hw water
    106      36    1  -1.112800  2.939840e+01  3.907002e+01  1.165266e+01  # Ow water
    107      36    2   0.556400  2.886340e+01  3.856205e+01  1.226256e+01  # Hw water
    108      36    2   0.556400  2.993915e+01  3.841784e+01  1.120716e+01  # Hw water
    109      37    1  -1.112800  3.078557e+01  1.946308e+00  4.134019e+01  # Ow water
    110      37    2   0.556400  3.113435e+01  1.502350e+00  4.056722e+01  # Hw water
    111      37    2   0.556400  2.998481e+01  2.370797e+00  4.103225e+01  # Hw water
    112      38    1  -1.112800  2.344941e+01  3.773981e+01  1.670424e+01  # Ow water
    113      38    2   0.556400  2.313091e+01  3.728295e+01  1.748275e+01  # Hw water
    114      38    2   0.556400  2.265548e+01  3.800247e+01  1.623850e+01  # Hw water
    115      39    1  -1.112800  3.659491e+00  3.965492e+01  3.028126e+01  # Ow water
    116      39    2   0.556400  3.546403e+00  4.010322e+01  2.944312e+01  # Hw water
    117      39    2   0.556400  4.417874e+00  4.008086e+01  3.068083e+01  # Hw water
    118      40    1  -1.112800  1.877895e+01  5.088032e+01  3.113997e+01  # Ow water
    119      40    2   0.556400  1.906799e+01  5.016673e+01  3.057123e+01  # Hw water
    120      40    2   0.556400  1.832502e+01  5.044383e+01  3.186084e+01  # Hw water
    121      41    1  -1.112800  1.834578e+01  1.648725e+01  1.725382e+01  # Ow water
    122      41    2   0.556400  1.914911e+01  1.604785e+01  1.753279e+01  # Hw water
    123      41    2   0.556400  1.764426e+01  1.588535e+01  1.750245e+01  # Hw water
    124      42    1  -1.112800  4.021967e+01  1.151292e+01  3.675710e+01  # Ow water
    125      42    2   0.556400  3.929562e+01  1.175926e+01  3.679821e+01  # Hw water
    126      42    2   0.556400  4.046096e+01  1.133385e+01  3.766591e+01  # Hw water
    127      43    1  -1.112800  9.861607e+00  4.474602e+01  5.077333e+01  # Ow water
    128      43    2   0.556400  1.066739e+01  4.423982e+01  5.087677e+01  # Hw water
    129      43    2   0.556400  1.015745e+01  4.561595e+01  5.050513e+01  # Hw water
    130      44    1  -1.112800  3.993322e+01  2.928886e+01  3.571793e+01  # Ow water
    131      44    2   0.556400  3.982571e+01  2.834594e+01  3.584271e+01  # Hw water
    132      44    2   0.556400  3.916220e+01  2.955403e+01  3.521648e+01  # Hw water
    133      45    1  -1.112800  4.476339e+01  1.082229e+01  3.130197e+01  # Ow water
    134      45    2   0.556400  4.495302e+01  1.078836e+01  3.223958e+01  # Hw water
    135      45    2   0.556400  4.492166e+01  1.173423e+01  3.105795e+01  # Hw water
    136      46    1  -1.112800  3.809246e+01  3.338407e+01  2.095622e+01  # Ow water
    137      46    2   0.556400  3.885579e+01  3.393661e+01  2.078815e+01  # Hw water
    138      46    2   0.556400  3.843726e+01  3.264392e+01  2.145574e+01  # Hw water
    139      47    1  -1.112800  1.579073e+01  4.385984e+01  1.105119e+01  # Ow water
    140      47    2   0.556400  1.561510e+01  4.364963e+01  1.196836e+01  # Hw water
    141      47    2   0.556400  1.583104e+01  4.481590e+01  1.102757e+01  # Hw water
    142      48    1  -1.112800  3.552939e+01  5.823169e+00  1.501520e+00  # Ow water
    143      48    2   0.556400  3.623779e+01  5.787457e+00  2.144271e+00  # Hw water
    144      48    2   0.556400  3.475974e+01  5.507164e+00  1.974818e+00  # Hw water
    145      49    1  -1.112800  2.839837e+01  3.563704e+01  4.787300e+01  # Ow water
    146      49    2   0.556400  2.782303e+01  3.588715e+01  4.715005e+01  # Hw water
    147      49    2   0.556400  2.912090e+01  3.626358e+01  4.783250e+01  # Hw water
    148      50    1  -1.112800  3.041802e+01  7.540521e+00  4.088852e+01  # Ow water
    149      50    2   0.556400  3.005974e+01  6.654793e+00  4.094641e+01  # Hw water
    150      50    2   0.556400  3.136562e+01  7.413533e+00  4.084207e+01  # Hw water
    151      51    1  -1.112800  4.168891e+01  5.029672e+01  1.725228e+01  # Ow water
    152      51    2   0.556400  4.096972e+01  5.088031e+01  1.749400e+01  # Hw water
    153      51    2   0.556400  4.236854e+01  5.088032e+01  1.691504e+01  # Hw water
    154      52    1  -1.112800  3.184704e+01  2.231356e+01  1.499862e+00  # Ow water
    155      52    2   0.556400  3.167077e+01  2.308180e+01  2.042957e+00  # Hw water
    156      52    2   0.556400  3.110786e+01  2.172824e+01  1.664950e+00  # Hw water
    157      53    1  -1.112800  1.334375e+01  3.367219e+01  4.084929e+01  # Ow water
    158      53    2   0.556400  1.346174e+01  3.286726e+01  4.034491e+01  # Hw water
    159      53    2   0.556400  1.295507e+01  3.428916e+01  4.022922e+01  # Hw water
    160      54    1  -1.112800  9.516942e+00  1.615335e+01  4.881845e+01  # Ow water
    161      54    2   0.556400  9.975064e+00  1.545512e+01  4.928624e+01  # Hw water
    162      54    2   0.556400  9.608470e+00  1.692076e+01  4.938319e+01  # Hw water
    163      55    1  -1.112800  2.265048e+01  1.281941e+01  3.711716e+01  # Ow water
    164      55    2   0.556400  2.318623e+01  1.356410e+01  3.684392e+01  # Hw water
    165      55    2   0.556400  2.199964e+01  1.319640e+01  3.770919e+01  # Hw water
    166      56    1  -1.112800  8.482220e+00  2.273171e+01  9.491980e+00  # Ow water
    167      56    2   0.556400  8.906801e+00  2.354382e+01  9.768455e+00  # Hw water
    168      56    2   0.556400  8.432824e+00  2.279929e+01  8.538449e+00  # Hw water
    169      57    1  -1.112800  8.229662e+00  2.343863e+01  4.329408e+01  # Ow water
    170      57    2   0.556400  7.703001e+00  2.274089e+01  4.290419e+01  # Hw water
    171      57    2   0.556400  9.122636e+00  2.309392e+01  4.329393e+01  # Hw water
    172      58    1  -1.112800  4.347895e+01  1.329383e+01  1.560475e+00  # Ow water
    173      58    2   0.556400  4.265687e+01  1.378040e+01  1.500013e+00  # Hw water
    174      58    2   0.556400  4.321880e+01  1.237465e+01  1.500082e+00  # Hw water
    175      59    1  -1.112800  2.029231e+01  4.171778e+01  2.551299e+01  # Ow water
    176      59    2   0.556400  2.098133e+01  4.165292e+01  2.485171e+01  # Hw water
    177      59    2   0.556400  1.961473e+01  4.225441e+01  2.510173e+01  # Hw water
    178      60    1  -1.112800  1.895866e+01  2.128639e+01  4.294023e+01  # Ow water
    179      60    2   0.556400  1.959250e+01  2.079885e+01  4.346632e+01  # Hw water
    180      60    2   0.556400  1.833035e+01  2.062585e+01  4.264844e+01  # Hw water
    181      61    1  -1.112800  2.328784e+01  3.327993e+01  4.209818e+01  # Ow water
    182      61    2   0.556400  2.257887e+01  3.380072e+01  4.172086e+01  # Hw water
    183      61    2   0.556400  2.408229e+01  3.362537e+01  4.169105e+01  # Hw water
    184      62    1  -1.112800  5.088033e+01  7.750729e+00  2.050860e+00  # Ow water
    185      62    2   0.556400  5.078705e+01  7.372196e+00  2.925069e+00  # Hw water
    186      62    2   0.556400  5.086752e+01  8.696721e+00  2.196336e+00  # Hw water
    187      63    1  -1.112800  1.632652e+01  3.833957e+01  4.365305e+00  # Ow water
    188      63    2   0.556400  1.577561e+01  3.810627e+01  5.112500e+00  # Hw water
    189      63    2   0.556400  1.708556e+01  3.877484e+01  4.753414e+00  # Hw water
    190      64    1  -1.112800  3.950097e+01  3.300154e+01  8.562748e+00  # Ow water
    191      64    2   0.556400  4.036635e+01  3.283175e+01  8.934942e+00  # Hw water
    192      64    2   0.556400  3.943892e+01  3.395599e+01  8.525241e+00  # Hw water
    193      65    1  -1.112800  3.770868e+01  2.670695e+01  4.600285e+01  # Ow water
    194      65    2   0.556400  3.739927e+01  2.591409e+01  4.556484e+01  # Hw water
    195      65    2   0.556400  3.818248e+01  2.718699e+01  4.532365e+01  # Hw water
    196      66    1  -1.112800  2.684962e+01  8.827227e+00  8.502610e+00  # Ow water
    197      66    2   0.556400  2.775943e+01  9.060770e+00  8.686805e+00  # Hw water
    198      66    2   0.556400  2.652803e+01  8.450443e+00  9.321659e+00  # Hw water
    199      67    1  -1.112800  1.536614e+01  4.342931e+00  1.312991e+01  # Ow water
    200      67    2   0.556400  1.576624e+01  4.958194e+00  1.374440e+01  # Hw water
    201      67    2   0.556400  1.540900e+01  4.787332e+00  1.228321e+01  # Hw water
    202      68    1  -1.112800  8.188366e+00  4.785596e+01  2.748471e+01  # Ow water
    203      68    2   0.556400  8.300706e+00  4.722663e+01  2.677228e+01  # Hw water
    204      68    2   0.556400  9.080412e+00  4.808894e+01  2.774201e+01  # Hw water
    205      69    1  -1.112800  3.190509e+01  3.721569e+01  8.963077e+00  # Ow water
    206      69    2   0.556400  3.242244e+01  3.644517e+01  9.197362e+00  # Hw water
    207      69    2   0.556400  3.186497e+01  3.773171e+01  9.768272e+00  # Hw water
    208      70    1  -1.112800  2.194430e+01  4.177790e+01  5.029458e+01  # Ow water
    209      70    2   0.556400  2.136194e+01  4.129441e+01  5.088052e+01  # Hw water
    210      70    2   0.556400  2.252676e+01  4.226141e+01  5.088039e+01  # Hw water
    211      71    1  -1.112800  4.168121e+01  2.151196e+01  2.558733e+01  # Ow water
    212      71    2   0.556400  4.166201e+01  2.084700e+01  2.627558e+01  # Hw water
    213      71    2   0.556400  4.239703e+01  2.209599e+01  2.583779e+01  # Hw water
    214      72    1  -1.112800  4.830584e+01  3.841993e+01  4.411448e+01  # Ow water
    215      72    2   0.556400  4.743739e+01  3.819991e+01  4.377743e+01  # Hw water
    216      72    2   0.556400  4.886987e+01  3.842243e+01  4.334111e+01  # Hw water
    217      73    1  -1.112800  2.325861e+01  5.010180e+01  3.709298e+00  # Ow water
    218      73    2   0.556400  2.265312e+01  4.951819e+01  4.166482e+00  # Hw water
    219      73    2   0.556400  2.273809e+01  5.088031e+01  3.511272e+00  # Hw water
    220      74    1  -1.112800  1.671077e+01  3.584113e+01  3.378734e+01  # Ow water
    221      74    2   0.556400  1.749544e+01  3.536903e+01  3.406599e+01  # Hw water
    222      74    2   0.556400  1.607748e+01  3.568917e+01  3.448883e+01  # Hw water
    223      75    1  -1.112800  5.088030e+01  4.394882e+01  4.880533e+01  # Ow water
    224      75    2   0.556400  5.085426e+01  4.373874e+01  4.973883e+01  # Hw water
    225      75    2   0.556400  5.085784e+01  4.490523e+01  4.877385e+01  # Hw water
    226      76    1  -1.112800  2.578836e+01  3.198534e+01  2.539562e+01  # Ow water
    227      76    2   0.556400  2.508025e+01  3.260930e+01  2.523604e+01  # Hw water
    228      76    2   0.556400  2.548922e+01  3.146913e+01  2.614413e+01  # Hw water
    229      77    1  -1.112800  2.831797e+00  2.651656e+01  1.502141e+01  # Ow water
    230      77    2   0.556400  2.585912e+00  2.723570e+01  1.443950e+01  # Hw water
    231      77    2   0.556400  3.071317e+00  2.580175e+01  1.443158e+01  # Hw water
    232      78    1  -1.112800  4.552511e+01  3.255402e+01  4.923445e+01  # Ow water
    233      78    2   0.556400  4.508077e+01  3.327384e+01  4.878650e+01  # Hw water
    234      78    2   0.556400  4.554905e+01  3.184783e+01  4.858873e+01  # Hw water
    235      79    1  -1.112800  1.078531e+01  3.106618e+01  4.122039e+01  # Ow water
    236      79    2   0.556400  1.171861e+01  3.124359e+01  4.110335e+01  # Hw water
    237      79    2   0.556400  1.047459e+01  3.082943e+01  4.034653e+01  # Hw water
    238      80    1  -1.112800  2.447610e+01  2.513436e+01  2.768301e+01  # Ow water
    239      80    2   0.556400  2.462935e+01  2.473397e+01  2.853883e+01  # Hw water
    240      80    2   0.556400  2.398500e+01  2.593295e+01  2.787615e+01  # Hw water
    241      81    1  -1.112800  9.094852e+00  2.828931e+01  3.700801e+01  # Ow water
    242      81    2   0.556400  8.268180e+00  2.795948e+01  3.736022e+01  # Hw water
    243      81    2   0.556400  8.838510e+00  2.883203e+01  3.626237e+01  # Hw water
    244      82    1  -1.112800  5.242686e+00  1.933399e+01  1.302091e+01  # Ow water
    245      82    2   0.556400  5.704582e+00  1.876626e+01  1.240401e+01  # Hw water
    246      82    2   0.556400  5.503435e+00  1.901281e+01  1.388409e+01  # Hw water
    247      83    1  -1.112800  1.673934e+00  4.266736e+01  2.039629e+01  # Ow water
    248      83    2   0.556400  1.500059e+00  4.211071e+01  2.115533e+01  # Hw water
    249      83    2   0.556400  2.234434e+00  4.213510e+01  1.983170e+01  # Hw water
    250      84    1  -1.112800  1.785580e+01  1.498612e+00  3.982916e+00  # Ow water
    251      84    2   0.556400  1.876012e+01  1.812079e+00  3.969823e+00  # Hw water
    252      84    2   0.556400  1.758368e+01  1.512485e+00  3.065317e+00  # Hw water
    253      85    1  -1.112800  3.837320e+01  2.271872e+01  3.873171e+00  # Ow water
    254      85    2   0.556400  3.818646e+01  2.364973e+01  3.752424e+00  # Hw water
    255      85    2   0.556400  3.798670e+01  2.250458e+01  4.722284e+00  # Hw water
    256      86    1  -1.112800  2.266247e+01  4.469279e+01  3.217330e+01  # Ow water
    257      86    2   0.556400  2.285625e+01  4.448828e+01  3.125851e+01  # Hw water
    258      86    2   0.556400  2.351977e+01  4.483768e+01  3.257363e+01  # Hw water
    259      87    1  -1.112800  3.580006e+01  3.301672e+01  2.822567e+01  # Ow water
    260      87    2   0.556400  3.501809e+01  3.286995e+01  2.769349e+01  # Hw water
    261      87    2   0.556400  3.651709e+01  3.265821e+01  2.770263e+01  # Hw water
    262      88    1  -1.112800  2.772418e+01  3.311002e+01  3.854364e+01  # Ow water
    263      88    2   0.556400  2.679574e+01  3.328874e+01  3.839438e+01  # Hw water
    264      88    2   0.556400  2.818230e+01  3.377019e+01  3.802351e+01  # Hw water
    265      89    1  -1.112800  3.263455e+00  2.742298e+01  4.839088e+01  # Ow water
    266      89    2   0.556400  3.210158e+00  2.768950e+01  4.747309e+01  # Hw water
    267      89    2   0.556400  3.714732e+00  2.657909e+01  4.836991e+01  # Hw water
    268      90    1  -1.112800  1.379403e+01  6.743512e+00  3.139389e+01  # Ow water
    269      90    2   0.556400  1.336282e+01  6.406523e+00  3.217921e+01  # Hw water
    270      90    2   0.556400  1.307510e+01  7.012708e+00  3.082213e+01  # Hw water
    271      91    1  -1.112800  2.859363e+01  5.088030e+01  3.683575e+01  # Ow water
    272      91    2   0.556400  2.845966e+01  5.060118e+01  3.593001e+01  # Hw water
    273      91    2   0.556400  2.935981e+01  5.038665e+01  3.712817e+01  # Hw water
    274      92    1  -1.112800  3.027166e+01  1.664237e+01  3.429461e+01  # Ow water
    275      92    2   0.556400  3.039027e+01  1.731732e+01  3.362632e+01  # Hw water
    276      92    2   0.556400  3.089789e+01  1.595807e+01  3.405838e+01  # Hw water
    277      93    1  -1.112800  3.383870e+01  4.168130e+01  2.060319e+01  # Ow water
    278      93    2   0.556400  3.383838e+01  4.085395e+01  2.108456e+01  # Hw water
    279      93    2   0.556400  3.295882e+01  4.203500e+01  2.073330e+01  # Hw water
    280      94    1  -1.112800  3.510885e+01  3.409366e+01  1.713884e+01  # Ow water
    281      94    2   0.556400  3.497818e+01  3.491319e+01  1.761585e+01  # Hw water
    282      94    2   0.556400  3.593285e+01  3.421873e+01  1.666810e+01  # Hw water
    283      95    1  -1.112800  1.783370e+00  2.459808e+01  4.239193e+00  # Ow water
    284      95    2   0.556400  1.500027e+00  2.547681e+01  4.491719e+00  # Hw water
    285      95    2   0.556400  1.538209e+00  2.452262e+01  3.317005e+00  # Hw water
    286      96    1  -1.112800  2.473903e+00  1.767665e+01  4.323082e+01  # Ow water
    287      96    2   0.556400  2.509504e+00  1.814746e+01  4.239817e+01  # Hw water
    288      96    2   0.556400  1.874109e+00  1.694838e+01  4.306927e+01  # Hw water
    289      97    1  -1.112800  2.392213e+01  2.365774e+01  3.403122e+01  # Ow water
    290      97    2   0.556400  2.375100e+01  2.398107e+01  3.491576e+01  # Hw water
    291      97    2   0.556400  2.482542e+01  2.334251e+01  3.406150e+01  # Hw water
    292      98    1  -1.112800  3.076856e+01  5.052562e+01  2.085849e+00  # Ow water
    293      98    2   0.556400  3.144192e+01  5.087141e+01  1.499974e+00  # Hw water
    294      98    2   0.556400  3.009522e+01  5.017982e+01  1.499964e+00  # Hw water
    295      99    1  -1.112800  3.889533e+01  2.074739e+01  4.153703e+01  # Ow water
    296      99    2   0.556400  3.830072e+01  2.148211e+01  4.168816e+01  # Hw water
    297      99    2   0.556400  3.928863e+01  2.057697e+01  4.239289e+01  # Hw water
    298     100    1  -1.112800  3.646077e+01  3.763819e+01  2.372679e+01  # Ow water
    299     100    2   0.556400  3.740228e+01  3.758361e+01  2.389052e+01  # Hw water
    300     100    2   0.556400  3.615448e+01  3.673309e+01  2.378331e+01  # Hw water
    301     101    1  -1.112800  1.226778e+01  5.024109e+01  3.565165e+01  # Ow water
    302     101    2   0.556400  1.146831e+01  5.076639e+01  3.568538e+01  # Hw water
    303     101    2   0.556400  1.297697e+01  5.087712e+01  3.574512e+01  # Hw water
    304     102    1  -1.112800  5.083727e+01  5.045707e+01  4.850237e+00  # Ow water
    305     102    2   0.556400  5.088031e+01  5.086723e+01  5.714033e+00  # Hw water
    306     102    2   0.556400  5.009419e+01  5.088041e+01  4.420309e+00  # Hw water
    307     103    1  -1.112800  1.239014e+01  4.455283e+01  4.084121e+01  # Ow water
    308     103    2   0.556400  1.244964e+01  4.385432e+01  4.149296e+01  # Hw water
    309     103    2   0.556400  1.230239e+01  4.535483e+01  4.135630e+01  # Hw water
    310     104    1  -1.112800  1.095961e+01  2.142357e+01  6.005252e+00  # Ow water
    311     104    2   0.556400  1.156199e+01  2.192029e+01  6.559002e+00  # Hw water
    312     104    2   0.556400  1.148375e+01  2.069404e+01  5.674647e+00  # Hw water
    313     105    1  -1.112800  1.905057e+01  4.249078e+01  3.971434e+01  # Ow water
    314     105    2   0.556400  1.891972e+01  4.201415e+01  3.889463e+01  # Hw water
    315     105    2   0.556400  1.974254e+01  4.312204e+01  3.951707e+01  # Hw water
    316     106    1  -1.112800  2.922833e+01  2.963301e+01  3.067247e+01  # Ow water
    317     106    2   0.556400  2.831533e+01  2.934622e+01  3.065248e+01  # Hw water
    318     106    2   0.556400  2.967201e+01  2.906546e+01  3.004218e+01  # Hw water
    319     107    1  -1.112800  1.499682e+00  4.501436e+01  9.626965e+00  # Ow water
    320     107    2   0.556400  1.519693e+00  4.458597e+01  8.771215e+00  # Hw water
    321     107    2   0.556400  2.166119e+00  4.569894e+01  9.568286e+00  # Hw water
    322     108    1  -1.112800  3.251246e+01  2.706522e+01  1.742411e+01  # Ow water
    323     108    2   0.556400  3.189510e+01  2.709226e+01  1.815511e+01  # Hw water
    324     108    2   0.556400  3.296372e+01  2.622676e+01  1.752198e+01  # Hw water
    325     109    1  -1.112800  1.563373e+00  4.791202e+01  3.484056e+01  # Ow water
    326     109    2   0.556400  1.499932e+00  4.812607e+01  3.390977e+01  # Hw water
    327     109    2   0.556400  1.499651e+00  4.695747e+01  3.487219e+01  # Hw water
    328     110    1  -1.112800  2.450842e+01  4.105715e+01  2.455639e+01  # Ow water
    329     110    2   0.556400  2.429520e+01  4.014941e+01  2.434012e+01  # Hw water
    330     110    2   0.556400  2.510296e+01  4.099250e+01  2.530377e+01  # Hw water
    331     111    1  -1.112800  3.669910e+00  3.492933e+01  9.035717e+00  # Ow water
    332     111    2   0.556400  2.980547e+00  3.428370e+01  9.191147e+00  # Hw water
    333     111    2   0.556400  3.738944e+00  3.541000e+01  9.860593e+00  # Hw water
    334     112    1  -1.112800  1.510244e+01  9.053144e+00  2.162981e+00  # Ow water
    335     112    2   0.556400  1.574075e+01  8.790313e+00  1.499866e+00  # Hw water
    336     112    2   0.556400  1.448961e+01  9.620106e+00  1.694779e+00  # Hw water
    337     113    1  -1.112800  1.548643e+00  3.486104e+01  3.891033e+01  # Ow water
    338     113    2   0.556400  1.517781e+00  3.436262e+01  3.972694e+01  # Hw water
    339     113    2   0.556400  1.517291e+00  3.419643e+01  3.822219e+01  # Hw water
    340     114    1  -1.112800  1.572468e+01  1.500000e+00  2.980963e+01  # Ow water
    341     114    2   0.556400  1.629177e+01  1.652048e+00  2.905364e+01  # Hw water
    342     114    2   0.556400  1.483846e+01  1.643425e+00  2.947756e+01  # Hw water
    343     115    1  -1.112800  1.634000e+01  3.251062e+01  1.832811e+01  # Ow water
    344     115    2   0.556400  1.707607e+01  3.309984e+01  1.849317e+01  # Hw water
    345     115    2   0.556400  1.658494e+01  3.169325e+01  1.876188e+01  # Hw water
    346     116    1  -1.112800  1.118882e+01  4.367798e+01  2.978253e+01  # Ow water