13640
Atoms. Timestep: 0
Ow 36.6185 47.0166 19.9723
H 36.3353 46.978 20.8858
H 37.4192 47.5409 19.9913
Ow 18.1211 22.3811 50.1247
H 18.5631 21.6444 50.5468
H 18.8296 22.9727 49.8711
Ow 41.6105 51.3131 18.5049
H 40.8039 51.7276 18.1986
H 42.3109 51.8066 18.078
Ow 12.9991 50.8581 10.0731
H 13.079 50.1304 10.6898
H 13.8247 51.3351 10.1565
Ow 15.6337 28.58 34.9477
H 16.0886 29.1328 35.583
H 15.8473 27.6851 35.2118
Ow 15.6911 21.7101 43.3059
H 15.9038 22.6399 43.2255
H 14.7343 21.682 43.3066
Ow 31.244 38.0264 1.65602
H 31.2308 37.3411 0.98794
H 30.435 38.5173 1.51228
Ow 32.1253 16.215 47.0391
H 33.024 16.5444 47.0309
H 32.1509 15.434 46.4864
Ow 22.7221 38.4251 6.10043
H 23.5256 37.9802 6.37012
H 22.3447 37.8542 5.4312
Ow 1.20506 22.2839 22.2055
H 1.33706 22.4498 21.2721
H 1.3424 21.3416 22.3036
Ow 12.1654 3.55793 18.8121
H 13.0643 3.88629 18.8307
H 11.9958 3.27174 19.7097
Ow 35.558 3.35517 6.64741
H 35.5881 3.11805 7.57428
H 35.6163 2.5197 6.18393
Ow 49.7446 22.6566 28.5246
H 50.5911 22.6556 28.9714
H 49.9549 22.8574 27.6126
Ow 41.8213 35.0409 27.6437
H 42.4076 35.7746 27.4589
H 42.4067 34.3095 27.8401
Ow 42.4716 25.2771 41.1496
H 42.4492 24.6254 40.4489
H 43.1158 24.9388 41.7715
Ow 12.3835 6.59809 28.8855
H 13.1302 7.19673 28.8702
H 11.6422 7.14567 29.1442
Ow 49.7345 11.2474 3.75727
H 50.6144 11.101 4.10457
H 49.3604 11.9195 4.32698
Ow 10.0942 18.5698 45.9716
H 10.2786 19.4624 46.2639
H 9.96418 18.0745 46.7803
Ow 44.4152 13.3658 6.56881
H 44.7293 14.2046 6.90647
H 44.7759 13.3131 5.68375
Ow 21.5644 42.6074 47.0632
H 22.2591 42.3411 46.461
H 20.9221 41.8992 47.017
Ow 47.7685 33.0849 7.01525
H 47.8276 32.4868 6.27028
H 48.6682 33.378 7.15972
Ow 20.5443 8.93685 1.40672
H 20.267 9.62736 2.0088
H 20.8794 8.24328 1.97499
Ow 37.5731 33.8268 9.92915
H 38.269 33.348 10.3794
H 37.4222 34.5994 10.4737
Ow 35.1059 12.1344 45.8526
H 34.4584 12.3563 46.5217
H 34.9474 12.7622 45.1476
Ow 45.8865 47.3485 33.0902
H 45.9041 47.8538 32.2774
H 45.9704 48.0043 33.7824
Ow 27.9108 2.28432 30.0789
H 28.7111 1.99854 29.6385
H 27.5008 2.89066 29.462
Ow 45.6464 48.5729 5.03271
H 46.4947 49.0011 5.14846
H 45.6379 47.876 5.68882
Ow 47.0447 39.7733 39.0846
H 47.2765 39.3506 38.2576
H 46.411 40.4477 38.84
Ow 21.7321 2.54553 9.51798
H 22.1435 1.68752 9.41428
H 21.7144 2.69044 10.464
Ow 13.5189 42.9238 25.1852
H 13.9859 42.9156 26.0207
H 13.0368 42.097 25.1716
Ow 30.2817 30.2953 4.88867
H 29.5345 29.6982 4.92684
H 30.4065 30.5816 5.79345
Ow 12.2106 36.7765 16.4454
H 11.3178 37.1088 16.5385
H 12.664 37.0834 17.2306
Ow 9.21628 36.218 40.555
H 8.26923 36.1204 40.4561
H 9.31939 36.9252 41.1919
Ow 34.3198 13.9636 49.7715
H 34.4452 13.3207 50.4695
H 33.7643 13.5181 49.1319
Ow 42.7219 10.176 23.6775
H 43.221 10.8209 23.1763
H 43.3135 9.90875 24.381
Ow 35.256 24.8062 41.0919
H 35.3806 24.0706 41.6916
H 34.4435 25.2192 41.3843
Ow 13.4204 11.3923 28.5496
H 13.252 11.359 29.4912
H 14.3308 11.1111 28.4585
Ow 28.413 38.9279 1.52392
H 27.6523 38.3646 1.66675
H 28.2634 39.6822 2.09385
Ow 23.1959 37.2076 31.2702
H 22.676 36.4136 31.1456
H 22.9941 37.7488 30.5069
Ow 2.87716 32.8576 50.6823
H 2.15309 32.2318 50.6644
H 2.45412 33.7153 50.6419
Ow 36.1635 12.3394 13.3973
H 36.009 11.9147 14.2411
H 37.0084 11.996 13.1068
Ow 44.8311 0.888222 7.55412
H 44.9589 1.82504 7.70331
H 44.13 0.642546 8.15774
Ow 48.6614 23.3043 24.4701
H 48.9639 24.1132 24.8829
H 49.3237 22.6537 24.7031
Ow 23.7535 30.8333 6.04313
H 24.3788 31.5513 5.94476
H 23.0123 31.0833 5.49149
Ow 2.9176 0.730043 28.1438
H 3.54229 1.06678 28.7861
H 2.11574 0.580129 28.6446
Ow 48.0108 22.4734 36.0665
H 47.7343 22.3459 36.974
H 48.3485 23.3687 36.0421
Ow 31.024 30.6661 26.0528
H 31.1453 30.5918 26.9994
H 31.4028 29.8616 25.6985
Ow 11.4738 11.7324 41.9883
H 11.0117 12.4386 42.44
H 11.8242 11.1863 42.692
Ow 29.3041 23.7013 52.0408
H 29.3883 24.6543 52.0102
H 29.9167 23.3848 51.3769
Ow 38.6863 8.9768 10.5436
H 38.7112 8.03606 10.7186
H 37.8324 9.12262 10.1364
Ow 40.6663 10.8349 17.7953
H 41.2892 10.9799 17.083
H 40.3541 9.93989 17.6626
Ow 49.1817 42.1581 5.52776
H 49.5139 41.9412 6.39891
H 48.2318 42.0686 5.60398
Ow 27.6081 49.3194 17.9646
H 27.1889 48.8673 17.2324
H 26.9388 49.3403 18.6486
Ow 27.1366 27.0049 1.91908
H 27.3095 26.3276 2.573
H 26.3038 26.7488 1.52276
Ow 26.2213 50.138 4.53816
H 25.3088 50.4155 4.61871
H 26.2141 49.2141 4.78858
Ow 50.8764 39.4755 25.635
H 51.5647 38.8782 25.3421
H 50.8943 40.192 25.0005
Ow 28.7987 8.12578 9.26137
H 28.0618 8.3524 9.82861
H 29.5618 8.14844 9.83877
Ow 17.5972 3.8296 9.31299
H 17.3596 3.23666 8.60014
H 18.2933 3.3716 9.78412
Ow 23.9014 18.7584 30.9653
H 23.6054 18.38 30.1373
H 24.7682 18.3777 31.1069
Ow 32.0312 29.3136 37.2521
H 32.6752 28.8736 36.6972
H 31.3836 28.6372 37.4508
Ow 22.5421 42.5468 44.1656
H 22.5405 43.4766 44.3929
H 23.1852 42.4732 43.4605
Ow 30.7194 32.0639 18.5745
H 31.4752 32.4199 18.1072
H 30.986 32.0595 19.4938
Ow 2.63083 45.7465 37.2548
H 2.90548 44.9163 36.8655
H 3.44942 46.2038 37.4473
Ow 27.4328 37.1236 18.2018
H 27.3001 37.5308 17.3458
H 27.7256 36.2345 18.0019
Ow 29.3093 25.6036 12.3318
H 30.0323 25.606 12.9592
H 29.4169 24.7867 11.8448
Ow 26.0393 44.6752 49.6185
H 25.5571 45.1154 50.3185
H 26.2696 43.8218 49.9857
Ow 6.95541 2.83762 28.5235
H 7.66888 3.46828 28.4262
H 6.76364 2.55246 27.6301
Ow 4.00196 32.1443 25.4552
H 3.61785 32.9566 25.1253
H 3.83493 31.5023 24.7651
Ow 44.0843 39.0508 11.7668
H 44.4781 38.2255 11.484
H 44.7745 39.7018 11.6399
Ow 21.2358 34.0556 16.8147
H 21.2881 34.9965 16.647
H 20.7228 33.7097 16.0843
Ow 42.4428 8.43764 1.3007
H 41.855 8.92978 0.727465
H 43.32 8.63876 0.974698
Ow 37.3699 34.5966 7.38451
H 36.6003 34.1078 7.09299
H 37.5172 34.2993 8.28234
Ow 8.59882 32.0866 27.1868
H 9.13975 32.8492 27.392
H 7.93723 32.4181 26.5796
Ow 49.6548 5.86191 0.936395
H 49.5298 4.93312 0.741601
H 49.4358 5.94406 1.86458
Ow 33.4976 33.487 44.9082
H 34.4494 33.4391 44.8184
H 33.1799 33.6393 44.0182
Ow 47.6391 32.0974 11.7019
H 48.4189 32.6471 11.6249
H 46.9452 32.6049 11.2809
Ow 32.1007 36.0013 48.7636
H 31.3411 36.5038 49.0581
H 31.8347 35.6367 47.9195
Ow 1.78737 48.5928 10.5701
H 1.23905 48.4164 11.3346
H 1.59775 49.5033 10.3437
Ow 37.3838 23.5556 32.8944
H 38.0572 23.4494 33.5663
H 36.7728 24.1921 33.2656
Ow 41.7109 4.01944 16.414
H 41.723 4.23157 15.4807
H 41.4476 3.09979 16.4477
Ow 26.1861 42.83 36.6608
H 26.8378 43.2075 36.07
H 25.3561 42.9225 36.1931
Ow 13.0139 14.1289 44.5311
H 12.2203 13.9445 44.0287
H 13.5399 14.6828 43.9543
Ow 19.3876 25.3629 48.6754
H 18.4387 25.4382 48.7755
H 19.5051 24.8793 47.8578
Ow 7.35569 48.7542 36.2476
H 7.77113 47.9431 36.5404
H 7.82505 49.4461 36.7137
Ow 12.9172 14.1736 29.0405
H 13.1162 13.2867 28.7405
H 12.368 14.0477 29.8143
Ow 32.2941 23.3902 34.3615
H 32.0803 23.86 33.5554
H 32.6135 22.5379 34.0651
Ow 6.05333 52.0588 41.5599
H 5.89679 51.3312 42.1619
H 6.93926 0.597174 41.7676
Ow 18.9355 6.11366 26.2492
H 18.7397 5.23833 26.5834
H 18.9843 6.00267 25.2997
Ow 13.8745 10.2134 8.61985
H 13.7411 9.80361 7.76514
H 14.8239 10.3111 8.69355
Ow 15.8857 42.2148 23.7015
H 15.0139 42.2474 24.0954
H 16.2809 41.4196 24.059
Ow 2.80001 5.73014 27.769
H 3.68228 5.58161 28.1093
H 2.25297 5.09928 28.237
Ow 25.016 32.3017 46.6981
H 24.6956 32.231 45.7988
H 25.0187 31.4015 47.0233
Ow 9.80246 24.1251 18.1989
H 9.96964 25.0676 18.2046
H 9.14041 24.003 17.5185
Ow 44.3789 35.6318 35.9542
H 44.1108 34.7425 36.1854
H 45.3296 35.6326 36.0661
Ow 45.8842 15.4536 20.2125
H 46.1362 16.0676 19.5227
H 46.1046 15.9045 21.0275
Ow 20.6357 16.337 14.4787
H 19.694 16.1883 14.5642
H 21.0027 15.467 14.3211
Ow 4.40896 6.23605 1.29545
H 4.04676 5.45206 0.882659
H 4.32141 6.9194 0.630923
Ow 28.4728 43.1367 31.6158
H 27.6434 43.4221 31.9992
H 28.5907 43.701 30.8517
Ow 28.7309 34.4562 17.7538
H 28.2764 33.786 18.2642
H 29.6603 34.2812 17.9015
Ow 40.5382 18.1065 13.479
H 40.4757 18.7371 14.1964
H 41.0405 17.3776 13.8432
Ow 13.6384 8.1322 50.0944
H 13.8183 7.29775 49.6612
H 12.975 8.54967 49.5449
Ow 48.0689 37.0972 34.1594
H 47.4488 36.7563 33.5148
H 48.4209 37.8912 33.757
Ow 20.911 10.8521 13.3724
H 21.6901 11.3236 13.6674
H 20.79 11.1323 12.4652
Ow 35.4796 18.1918 44.2177
H 36.4149 18.3828 44.1458
H 35.4203 17.2418 44.1173
Ow 15.8761 28.8551 1.1634
H 14.9508 28.7146 1.36383
H 16.2265 27.9762 1.01863
Ow 31.5168 35.2149 46.2783
H 32.1702 34.5247 46.1648
H 30.8728 35.0515 45.5892
Ow 26.8549 30.7059 8.82913
H 26.488 31.5168 9.18137
H 26.1477 30.0663 8.91265
Ow 19.7221 40.4445 46.1449
H 19.2737 40.7229 45.3464
H 20.392 39.8313 45.8426
Ow 5.88842 50.0326 19.6759
H 6.44269 49.3916 20.121
H 5.34038 50.399 20.3699
Ow 6.58209 26.0943 4.0046
H 6.08871 25.6186 4.67287
H 7.49788 25.9903 4.26297
Ow 28.3918 4.82706 47.9251
H 29.2378 4.41435 47.7511
H 27.953 4.22912 48.5302
Ow 28.2653 10.7096 28.855
H 28.2964 11.4586 29.4502
H 28.9213 10.1028 29.1983
Ow 5.04181 31.7662 36.4382
H 5.59714 32.5223 36.6284
H 4.91643 31.7931 35.4897
Ow 39.7437 0.527032 11.5654
H 39.2014 51.788 12.1774
H 39.7814 1.40739 11.9393
Ow 42.139 11.6897 2.43194
H 41.2531 11.441 2.16809
H 42.5598 11.9748 1.62088
Ow 28.2659 24.2637 20.9945
H 28.6089 23.5386 20.4722
H 27.4231 23.9475 21.3199
Ow 40.0136 35.7385 47.8296
H 40.4844 36.5708 47.8735
H 39.5331 35.778 47.0027
Ow 26.1369 47.7237 44.2906
H 26.4697 47.4003 45.1278
H 25.7525 46.9537 43.8716
Ow 3.42131 44.5057 41.1097
H 3.374 43.8543 40.41
H 4.34831 44.537 41.3462
Ow 2.06094 50.8548 45.3116
H 2.56288 50.0449 45.4033
H 1.19608 50.5691 45.0173
Ow 3.16953 7.97062 42.1378
H 2.63521 7.99576 42.9316
H 2.535 7.97521 41.4212
Ow 21.8393 8.87799 5.06817
H 21.3459 8.07311 4.91034
H 22.5802 8.82763 4.46414
Ow 51.0852 49.993 44.805
H 50.8841 49.3841 45.5158
H 50.2577 50.0944 44.3346
Ow 1.1993 13.3239 17.3194
H 1.7327 14.1187 17.3111
H 1.25115 12.9908 16.4235
Ow 20.8942 15.283 9.71327
H 21.5046 15.5475 10.4016
H 20.7507 14.349 9.86565
Ow 15.8136 20.459 16.8949
H 16.3034 21.2493 17.1224
H 15.3326 20.6948 16.1016
Ow 42.5319 28.3432 30.9183
H 42.6795 29.2479 31.1941
H 43.1115 28.224 30.166
Ow 42.5537 4.8819 8.47372
H 43.3249 4.3745 8.22071
H 42.8526 5.79121 8.46937
Ow 37.2762 14.3091 10.2585
H 37.6718 14.3481 9.38771
H 36.6647 13.5741 10.2116
Ow 46.4809 13.1185 15.9351
H 46.5426 12.3114 16.4461
H 46.7286 12.8599 15.0473
Ow 14.3367 36.5537 33.5577
H 14.9225 36.8225 34.2653
H 13.9508 35.7331 33.8642
Ow 9.79447 11.3528 50.6649
H 10.5183 11.8747 50.3186
H 10.1217 10.4533 50.6565
Ow 20.5501 31.3929 40.7307
H 20.6158 30.4469 40.6
H 20.7846 31.5251 41.6493
Ow 14.3497 4.86847 17.8182
H 15.0799 4.8565 18.437
H 14.7611 4.76943 16.9596
Ow 51.2552 33.1246 28.3445
H 50.4337 32.6494 28.4696
H 50.9855 34.0077 28.0921
Ow 42.2283 39.8622 51.3987
H 42.1006 39.497 0.515601
H 42.9755 39.3802 51.0442
Ow 32.2445 7.69243 15.2562
H 32.4867 8.23289 16.0082
H 32.5827 8.16982 14.4986
Ow 25.9219 35.7693 25.5844
H 25.4555 36.6012 25.5035
H 25.2297 35.11 25.6347
Ow 32.0431 11.5055 23.0411
H 31.2652 11.8963 23.4391
H 32.3202 12.1412 22.3813
Ow 13.0828 27.1944 17.0966
H 13.3362 26.5645 16.4218
H 12.1376 27.077 17.1916
Ow 25.92 17.8638 22.6409
H 24.9906 17.802 22.8616
H 25.9761 17.5339 21.7442
Ow 10.6991 43.0687 37.1164
H 9.78618 43.1929 36.8567
H 11.1999 43.5923 36.4908
Ow 11.42 39.0781 28.3953
H 10.9647 38.2507 28.2394
H 10.7842 39.7513 28.1529
Ow 6.72287 49.1446 9.1901
H 6.49289 49.2149 8.26359
H 7.5974 48.7555 9.19146
Ow 43.9024 15.2417 33.3467
H 44.7271 14.9118 32.9901
H 43.4479 14.4607 33.6624
Ow 16.1498 18.8129 43.2021
H 16.1344 19.7435 42.9789
H 17.0802 18.5952 43.2592
Ow 33.089 11.1305 26.5937
H 33.6293 10.631 25.9814
H 33.5643 11.0874 27.4234
Ow 13.8969 50.76 50.6579
H 12.9841 50.4875 50.7514
H 13.8631 51.5141 50.0693
Ow 25.9315 15.6483 36.4204
H 25.6448 15.6183 35.5076
H 25.7858 14.7604 36.747
Ow 16.8177 24.0981 43.1168
H 17.0524 24.472 43.9662
H 17.3922 24.5414 42.4926
Ow 18.4314 20.0342 31.5967
H 18.74 20.3538 30.7488
H 18.2687 19.1013 31.4568
Ow 1.69001 15.0827 31.5572
H 1.64674 16.0373 31.6136
H 0.7802 14.7961 31.6368
Ow 8.15777 48.3421 33.5923
H 7.97602 49.0306 32.9526
H 7.66934 48.6045 34.3726
Ow 4.74851 18.6884 45.2281
H 5.09723 19.5675 45.0803
H 5.36685 18.2841 45.8367
Ow 3.31476 46.3607 9.32749
H 2.55004 46.7913 8.94543
H 3.54752 46.9068 10.0784
Ow 12.5944 40.3061 51.1447
H 12.1837 41.1703 51.1178
H 13.5279 40.4801 51.0245
Ow 19.4785 47.4551 7.00897
H 19.1432 48.3209 6.77589
H 18.9809 47.2069 7.78814
Ow 45.4089 43.4911 7.98996
H 44.4874 43.238 8.04487
H 45.5625 44.0106 8.77914
Ow 6.04184 8.63253 28.907
H 5.58 8.45378 28.0878
H 6.6992 7.93942 28.968
Ow 25.0298 31.3714 16.4952
H 24.9376 32.3235 16.4607
H 25.7148 31.2201 17.1465
Ow 39.9521 40.59 4.37093
H 40.9091 40.5854 4.35087
H 39.7268 40.1282 5.17855
Ow 30.0194 40.9241 23.4672
H 29.5025 41.2401 22.7261
H 30.9213 41.1582 23.2479
Ow 4.73631 35.5696 12.5521
H 4.94654 35.112 11.7381
H 4.3505 36.3985 12.2687
Ow 40.3044 27.7364 4.59708
H 40.7059 27.8024 5.46349
H 41.0126 27.4379 4.02651
Ow 8.39038 25.8153 30.6454
H 7.46281 25.655 30.819
H 8.66979 25.0644 30.1217
Ow 39.3032 29.4073 43.6285
H 39.007 29.7848 42.8003
H 39.7037 28.5734 43.3825
Ow 26.9996 1.06679 50.1009
H 26.349 0.580508 50.6074
H 26.9146 0.725595 49.2107
Ow 23.991 11.3788 32.296
H 23.4515 11.2465 31.5165
H 23.9654 10.5371 32.7512
Ow 8.176 4.84076 49.7876
H 8.6309 4.89216 50.6282
H 8.87722 4.80699 49.1369
Ow 50.1696 6.7028 8.7781
H 49.826 5.83317 8.57332
H 49.4216 7.17689 9.14146
Ow 3.07753 21.1032 28.2075
H 3.31297 21.2313 27.2886
H 3.74885 20.5114 28.547
Ow 6.56633 35.2193 50.5859
H 6.36996 36.0226 51.0679
H 6.62626 34.5431 51.2607
Ow 30.232 40.695 35.0298
H 30.6227 40.9839 35.8544
H 29.3298 40.47 35.2574
Ow 8.14423 33.2307 20.4342
H 8.77193 33.5765 19.7997
H 8.17164 33.8519 21.1619
Ow 15.0384 43.1182 27.4433
H 14.6534 43.333 28.2928
H 15.9039 43.5268 27.4618
Ow 41.1559 45.4837 8.98495
H 41.8013 46.1869 8.91223
H 40.3525 45.8569 8.62233
Ow 46.1647 0.858965 44.9989
H 45.4458 0.641608 45.5924
H 46.9459 0.515364 45.4323
Ow 17.286 23.2891 4.10832
H 17.0251 24.2098 4.08729
H 17.6569 23.1647 4.98195
Ow 30.484 20.0996 51.2798
H 30.7529 20.6748 50.5635
H 29.7523 19.5967 50.922
Ow 28.6648 33.3058 15.0304
H 28.926 32.4224 15.2906
H 28.4502 33.7448 15.8534
Ow 34.0742 8.05043 22.6778
H 33.4508 7.4357 22.2908
H 34.7591 7.49511 23.0502
Ow 38.0061 0.624234 9.49322
H 37.589 51.5687 9.77511
H 38.7156 0.760353 10.1212
Ow 39.5337 41.6221 1.33323
H 39.0915 41.7917 0.501425
H 39.4517 40.6769 1.46022
Ow 39.3009 26.7496 35.5193
H 38.9332 25.8922 35.7334
H 38.7174 27.3751 35.9489
Ow 29.7728 51.2084 18.8166
H 28.9651 50.7042 18.9149
H 30.0053 51.4653 19.7089
Ow 31.5037 5.54175 4.03051
H 31.7827 5.80644 4.90706
H 31.3493 6.36585 3.56873
Ow 9.60233 51.0749 22.2123
H 10.5357 51.2344 22.352
H 9.46643 50.1737 22.5049
Ow 48.298 42.224 48.5596
H 48.542 42.4326 47.6579
H 49.0008 41.6547 48.8729
Ow 43.9392 42.6692 26.0004
H 44.8831 42.6568 26.1592
H 43.6227 41.8452 26.3708
Ow 25.4659 25.1624 30.7035
H 25.6439 24.4478 30.0921
H 25.218 25.8996 30.1455
Ow 5.51562 21.1164 40.6812
H 6.31064 21.6424 40.5945
H 5.07121 21.4778 41.4481
Ow 12.7899 23.9516 12.3932
H 13.5834 23.523 12.0724
H 12.8144 23.8233 13.3415
Ow 3.43624 0.579019 13.22
H 3.66039 51.6055 12.6455
H 2.52387 0.778269 13.0099
Ow 12.5685 43.2622 44.1975
H 12.2077 44.1021 44.4814
H 12.2806 43.1722 43.289
Ow 5.86357 12.2151 19.4348
H 5.19868 11.6203 19.0878
H 5.4083 12.715 20.1123
Ow 51.2725 43.9929 51.2234
H 51.6676 44.6426 51.8048
H 50.391 44.3259 51.0552
Ow 22.5316 16.979 8.00424
H 22.0574 16.3065 8.49326
H 23.2231 16.5006 7.54704
Ow 16.9355 39.3805 43.253
H 17.6851 39.9742 43.297
H 16.1944 39.9453 43.0341
Ow 40.6241 45.0174 25.7118
H 41.4761 45.1609 25.2997
H 40.6292 44.0924 25.9578
Ow 41.0469 34.1709 9.92937
H 41.3584 33.6698 10.6831
H 40.9064 33.5149 9.24659
Ow 21.0877 30.6195 37.2412
H 21.0533 29.912 37.885
H 20.3205 31.1579 37.4351
Ow 40.1685 20.5791 14.9446
H 39.5445 20.202 15.5648
H 40.9138 20.8427 15.4844
Ow 23.393 3.62867 32.2548
H 23.0232 2.75353 32.1379
H 24.3348 3.48163 32.3418
Ow 46.233 19.3615 49.0777
H 45.9137 18.4958 48.8228
H 45.8729 19.9539 48.4177
Ow 28.2186 21.6732 42.6488
H 27.2732 21.7975 42.7317
H 28.3226 21.1431 41.8586
Ow 11.9188 36.4301 1.03833
H 11.3072 37.0626 1.41526
H 12.7676 36.8719 1.06468
Ow 17.4935 43.1902 42.4646
H 16.6232 43.3107 42.8446
H 17.4066 43.4999 41.563
Ow 16.5736 2.25705 20.2471
H 17.3639 2.00727 20.726
H 16.7028 1.90055 19.3682
Ow 25.602 51.2575 19.5548
H 25.7096 50.5026 20.1335
H 24.7434 51.1301 19.1514
Ow 5.14621 30.0999 1.64853
H 5.70519 29.9533 2.41161
H 5.75742 30.1951 0.918051
Ow 16.6827 28.9981 27.0048
H 17.4948 28.5062 26.8837
H 16.9578 29.9147 27.0241
Ow 35.2334 46.9637 45.9549
H 35.2598 46.7903 46.8958
H 34.5945 46.3381 45.6133
Ow 12.6524 16.7325 33.155
H 12.638 15.9513 32.6021
H 11.9689 17.2959 32.7923
Ow 16.7506 33.425 17.496
H 16.0192 33.3461 16.8836
H 16.3969 33.9296 18.2285
Ow 17.1802 14.0409 17.6023
H 16.552 14.4134 16.9835
H 17.7191 14.784 17.8736
Ow 5.4368 7.89173 21.0483
H 4.87337 8.30074 21.7052
H 6.32039 8.18036 21.2768
Ow 14.6339 29.4593 15.6306
H 15.345 29.4863 16.2708
H 14.2575 30.3392 15.6527
Ow 16.6914 29.5268 50.3998
H 15.9383 29.6998 49.8349
H 16.3082 29.2707 51.2388
Ow 17.5458 18.4226 2.21325
H 17.5864 18.1818 3.13879
H 17.288 19.3444 2.21616
Ow 49.5272 25.1069 3.70038
H 49.6784 24.645 2.87576
H 50.3652 25.0574 4.16036
Ow 38.3139 7.24013 30.149
H 37.979 7.18514 29.254
H 37.7353 6.67153 30.6571
Ow 23.2319 21.5663 35.0602
H 22.822 21.926 34.2735
H 22.4977 21.3367 35.6298
Ow 30.4839 42.6282 28.1106
H 31.2365 43.1301 27.7977
H 30.009 43.236 28.6774
Ow 21.7722 27.3425 11.6816
H 21.3225 27.77 12.4105
H 22.085 28.0642 11.1361
Ow 20.6332 47.955 31.2763
H 21.1982 47.3002 30.8661
H 20.0516 48.2445 30.5733
Ow 1.07569 51.8813 3.00648
H 1.54656 51.249 3.54932
H 51.9202 51.6009 3.04958
Ow 16.7158 19.3129 50.7001
H 16.357 19.453 49.8238
H 17.3037 18.564 50.6018
Ow 46.5611 39.2693 1.59158
H 47.0038 38.4553 1.83163
H 47.2709 39.8951 1.44753
Ow 31.9691 11.8049 43.2302
H 31.1753 12.081 42.7721
H 32.4115 12.6226 43.4578
Ow 26.6095 3.80365 12.6108
H 26.6465 4.7495 12.753
H 26.435 3.4373 13.4778
Ow 17.9986 14.3608 31.708
H 17.8054 14.8482 32.5088
H 18.9543 14.3159 31.679
Ow 22.3334 35.1522 13.0858
H 21.4755 35.5369 12.9065
H 22.661 34.8855 12.2269
Ow 22.9356 10.1131 9.95339
H 21.9971 10.2535 10.0785
H 23.0653 9.18217 10.1344
Ow 6.32147 9.75543 46.9244
H 6.0706 8.86054 47.1535
H 6.78024 10.0817 47.6986
Ow 11.282 17.6582 8.24398
H 12.1421 17.9027 8.58537
H 11.0583 18.3596 7.63222
Ow 40.7197 23.4634 7.8678
H 40.5554 22.9194 7.09751
H 39.9247 23.3801 8.39439
Ow 13.2268 7.94497 33.8232
H 13.8858 8.60495 34.0385
H 13.7025 7.28736 33.3158
Ow 22.4164 50.7763 13.8184
H 21.7353 50.2466 13.4041
H 23.1423 50.7645 13.1947
Ow 13.1196 46.2674 36.3639
H 12.6033 46.0809 37.1481
H 12.576 45.9577 35.6394
Ow 31.0023 25.6918 42.8814
H 31.6556 25.913 42.2176
H 31.1565 24.7663 43.0708
Ow 4.18296 4.01205 44.1655
H 3.29076 4.34818 44.0805
H 4.73372 4.79475 44.1821
Ow 28.9693 11.8774 37.202
H 28.1797 11.9191 36.6625
H 28.9088 12.6415 37.7754
Ow 14.8854 43.9192 34.3228
H 15.7933 44.2141 34.2525
H 14.8678 43.0835 33.8563
Ow 23.6992 34.0315 1.2147
H 24.2919 34.7742 1.33004
H 22.823 34.4132 1.2678
Ow 34.314 29.5666 8.46933
H 34.9414 30.1736 8.86183
H 34.7389 28.7109 8.52841
Ow 32.9381 26.2444 41.0279
H 32.8527 26.2676 40.0748
H 33.2824 27.1071 41.2591
Ow 19.309 3.40095 27.3648
H 18.7829 2.82271 26.8124
H 20.1677 2.97992 27.4035
Ow 39.2434 2.14308 21.3914
H 39.6435 1.47928 20.8296
H 38.3484 1.83295 21.5294
Ow 24.556 36.1473 14.3954
H 23.6834 35.8357 14.1549
H 24.9384 35.427 14.8966
Ow 13.8025 9.46719 41.653
H 13.7911 8.56882 41.3228
H 13.1395 9.47759 42.3433
Ow 50.3235 51.6619 47.9657
H 50.4187 50.7192 47.8295
H 50.2781 51.7636 48.9164
Ow 5.1195 49.9111 15.1825
H 4.30095 49.7676 14.7075
H 4.9613 50.7004 15.7003
Ow 12.233 20.5658 51.5815
H 11.5476 21.214 51.4194
H 13.0517 21.0489 51.4691
Ow 8.76721 4.54417 0.689157
H 9.64131 4.93339 0.715629
H 8.24794 5.07932 1.28933
Ow 44.3141 39.3747 21.0316
H 45.2707 39.4083 21.0242
H 44.0421 40.2916 21.0709
Ow 3.25835 46.5348 49.5295
H 2.56934 46.5098 48.8656
H 3.63224 45.6536 49.5206
Ow 48.3179 26.3934 14.1889
H 48.4443 26.5171 13.2482
H 48.7023 27.1742 14.5874
Ow 25.4809 28.7248 6.40541
H 24.8539 29.4378 6.28424
H 26.2929 29.0507 6.01737
Ow 22.421 23.2882 16.3213
H 21.5218 23.0008 16.1627
H 22.7205 22.7474 17.052
Ow 4.47421 5.94725 37.6137
H 4.54647 5.10351 38.0599
H 5.37967 6.20787 37.4451
Ow 9.01161 5.97871 23.7627
H 9.8592 5.7458 23.3838
H 8.90841 5.38264 24.5045
Ow 3.00788 11.4241 44.8382
H 2.78817 11.8586 44.014
H 3.11238 10.5022 44.6031
Ow 39.0444 27.0845 46.8066
H 38.8019 26.4366 46.1451
H 38.4642 27.8272 46.6392
Ow 33.997 22.8748 11.897
H 34.5738 22.1654 11.6137
H 33.236 22.4306 12.2708
Ow 9.04217 13.8276 39.0378
H 9.89555 14.1293 38.7264
H 8.42002 14.1561 38.3887
Ow 12.064 24.6246 35.7835
H 12.9842 24.7029 36.0353
H 11.6666 24.1077 36.4842
Ow 14.0093 2.23024 26.2901
H 13.2414 2.78698 26.1615
H 14.6107 2.48565 25.5905
Ow 25.8755 24.1824 41.0934
H 25.5185 23.3192 40.8846
H 26.8196 24.041 41.1638
Ow 33.6504 35.9447 11.8858
H 34.148 36.6487 12.3017
H 33.716 35.211 12.4971
Ow 50.9486 44.8933 5.71303
H 51.0407 43.9841 5.99782
H 51.7673 45.3121 5.97865
Ow 36.9732 45.2269 32.6612
H 37.1658 45.9803 32.1031
H 37.5772 45.314 33.3987
Ow 32.958 29.4721 33.9606
H 33.3252 28.8048 34.5403
H 33.618 30.1652 33.9439
Ow 28.9354 6.51483 26.9831
H 28.1731 7.05553 27.1899
H 29.4169 7.01949 26.3276
Ow 27.4776 6.36521 45.6761
H 28.2036 6.27998 45.058
H 27.7285 5.81529 46.4183
Ow 15.7283 42.3947 5.18456
H 15.9448 41.8572 5.94646
H 15.198 43.109 5.53767
Ow 22.9221 6.93892 51.2052
H 23.8562 7.09856 51.0703
H 22.512 7.20366 50.3818
Ow 47.7091 19.3292 32.3198
H 47.7951 20.2588 32.5312
H 48.3791 19.1713 31.6547
Ow 19.9118 28.4449 35.7963
H 20.4688 29.2056 35.9615
H 19.8191 28.4176 34.8439
Ow 39.66 18.1451 25.7932
H 40.5196 18.1607 25.3724
H 39.13 18.7541 25.279
Ow 10.73 41.5872 22.835
H 9.83358 41.3696 22.5795
H 11.2051 41.6578 22.007
Ow 13.2938 39.3501 10.8318
H 14.2313 39.5243 10.9154
H 13.187 39.0368 9.93365
Ow 11.9416 46.8806 9.22531
H 12.6918 46.752 8.64482
H 11.6878 45.9961 9.48888
Ow 13.8785 51.6902 35.0263
H 13.5149 50.8113 34.9189
H 13.1626 0.443024 35.4034
Ow 2.77932 0.623407 7.20374
H 3.14858 1.38088 6.74975
H 3.3418 0.504648 7.96909
Ow 35.5709 36.4708 42.5641
H 36.3491 35.9538 42.356
H 35.9151 37.3101 42.8699
Ow 34.4608 14.6863 20.5842
H 35.1159 14.0446 20.3097
H 34.7587 14.98 21.4452
Ow 42.3662 22.4493 47.1806
H 42.0054 22.4077 48.0662
H 43.1549 21.9081 47.2171
Ow 36.9332 50.6684 2.26379
H 36.4976 51.5023 2.43975
H 36.4325 50.2831 1.54475
Ow 23.214 23.9432 13.7153
H 22.5714 24.017 14.4209
H 23.3491 24.8432 13.4186
Ow 39.8409 50.6965 44.0314
H 40.7633 50.5352 44.2299
H 39.4301 50.8237 44.8866
Ow 14.1465 8.94025 6.09403
H 15.0455 9.19303 5.88388
H 13.6219 9.30457 5.3811
Ow 12.9706 34.9094 26.3297
H 13.0461 34.6449 27.2465
H 12.4221 34.2346 25.9296
Ow 2.45274 6.74824 49.6441
H 1.77968 6.63405 50.3151
H 2.925 5.91572 49.6338
Ow 8.46704 14.6459 49.2621
H 8.29125 14.6972 50.2016
H 7.94026 13.9062 48.9595
Ow 35.9784 3.16763 42.4046
H 35.9803 4.08218 42.6871
H 35.5965 3.18831 41.5271
Ow 8.95492 32.5972 30.7002
H 9.32401 33.4799 30.6709
H 9.67191 32.0279 30.4207
Ow 8.47851 37.8188 20.0859
H 7.74861 37.56 20.6484
H 9.2325 37.346 20.4383
Ow 3.13671 43.4879 8.93684
H 3.30925 44.4282 8.98363
H 2.37087 43.4124 8.3676
Ow 39.9479 36.7058 9.30974
H 40.1192 35.8017 9.57347
H 40.2761 37.2343 10.0372
Ow 37.13 46.9773 16.9864
H 36.9582 47.1147 17.918
H 36.7216 46.1344 16.7889
Ow 0.882406 20.1823 15.5357
H 51.9565 19.9796 14.898
H 1.68433 20.2411 15.0163
Ow 34.5458 7.76235 47.3846
H 35.0183 7.81894 46.554
H 35.0648 7.15797 47.9152
Ow 10.5119 46.8343 35.0888
H 10.2692 45.9799 34.732
H 10.0512 46.8841 35.9264
Ow 39.5051 29.9654 49.7535
H 39.4144 30.6646 49.1061
H 38.8245 29.3336 49.5214
Ow 29.5331 51.3219 12.3663
H 30.142 51.628 11.6941
H 30.095 50.9693 13.0564
Ow 20.1464 36.0022 43.7013
H 20.3988 35.1086 43.4691
H 19.9745 35.9663 44.6422
Ow 39.3318 8.55499 3.47286
H 38.8758 8.83803 4.26544
H 40.2559 8.72776 3.65297
Ow 14.7088 46.9846 27.5984
H 14.6318 46.2991 26.9347
H 15.456 47.511 27.3141
Ow 5.85155 3.40244 2.68528
H 5.40354 2.59205 2.92774
H 6.15561 3.76654 3.51667
Ow 23.6663 34.1057 26.0514
H 23.1688 34.8176 26.454
H 23.3313 34.0551 25.1562
Ow 2.93357 48.5093 19.1264
H 3.77082 48.96 19.0165
H 2.78749 48.0671 18.2901
Ow 50.9962 29.0672 44.6697
H 50.0536 29.0516 44.8356
H 51.3886 29.2214 45.5291
Ow 22.7969 12.9295 41.3605
H 22.2082 12.366 41.8627
H 22.2154 13.5358 40.9017
Ow 19.754 14.1957 24.9692
H 19.9465 13.8466 25.8394
H 19.3573 13.4624 24.4989
Ow 17.2236 15.456 44.5166
H 18.0418 15.7947 44.153
H 16.577 15.5977 43.8251
Ow 39.7916 8.1304 17.199
H 39.7999 7.27747 17.6334
H 40.5932 8.14103 16.6759
Ow 35.9684 32.8995 3.74854
H 36.9186 32.9845 3.82706
H 35.6611 32.8003 4.64962
Ow 41.6095 16.8934 35.8327
H 42.061 17.7374 35.8286
H 41.634 16.6038 34.9207
Ow 14.0845 1.45163 32.7402
H 13.3599 2.07566 32.7821
H 14.1451 1.09439 33.6262
Ow 45.1039 39.2657 50.9245
H 45.6089 39.3393 51.7343
H 44.7985 38.3586 50.9137
Ow 5.55406 33.7841 10.6038
H 4.94617 33.0505 10.6964
H 6.35213 33.3912 10.2502
Ow 8.43312 23.715 49.7026
H 8.81919 23.972 48.8652
H 8.92786 22.9393 49.9669
Ow 31.4952 36.2529 3.93303
H 31.3183 36.8852 3.23649
H 32.1071 35.6296 3.54162
Ow 12.1334 40.4673 16.3629
H 12.8426 41.0203 16.6909
H 11.4932 41.0837 16.0073
Ow 29.4578 32.9693 29.6249
H 30.1 32.2773 29.4672
H 29.8636 33.5266 30.289
Ow 19.2895 13.1854 10.8795
H 19.5502 13.2893 11.7946
H 19.4507 12.2617 10.6874
Ow 46.7137 3.7323 35.3797
H 46.3024 2.93845 35.7216
H 45.9856 4.33626 35.2342
Ow 34.7575 22.0043 14.5709
H 35.3031 22.7564 14.8006
H 34.5388 22.1391 13.6488
Ow 1.95785 30.0218 18.6938
H 1.55303 30.841 18.4085
H 1.23379 29.5083 19.0519
Ow 25.2853 40.1315 39.0785
H 25.9126 39.5412 39.4962
H 25.7171 40.9857 39.0873
Ow 21.0193 34.0848 46.6688
H 21.2538 33.161 46.7562
H 20.5454 34.1346 45.8386
Ow 31.5084 16.331 7.18827
H 31.347 16.6877 8.06174
H 32.4492 16.1557 7.17066
Ow 19.8386 33.079 43.7717
H 18.9508 33.3618 43.9907
H 19.9024 32.1923 44.1267
Ow 12.471 39.621 4.08469
H 12.3898 38.7742 4.52346
H 11.5724 39.8615 3.85894
Ow 10.3539 8.14106 8.62602
H 11.2318 7.78275 8.75711
H 9.81162 7.37903 8.42246
Ow 30.0254 47.2506 28.1616
H 29.8966 46.8508 27.3015
H 29.7207 46.5885 28.7821
Ow 40.0904 13.0927 46.0327
H 40.4043 13.9866 45.8961
H 40.567 12.5698 45.3879
Ow 50.9181 33.6754 2.33971
H 51.2234 32.7846 2.16805
H 49.9793 33.5805 2.50064
Ow 37.4333 19.8041 1.62228
H 38.1386 19.1863 1.8147
H 36.9648 19.4116 0.885601
Ow 18.659 4.61392 51.5449
H 18.1519 5.24606 51.0355
H 18.8112 5.04883 0.625298
Ow 2.83229 1.75883 17.9328
H 1.98394 1.33938 18.0763
H 3.14713 1.38773 17.1085
Ow 14.5683 6.54577 36.363
H 14.6983 5.87245 35.6952
H 14.2887 6.06209 37.1402
Ow 11.9552 4.40172 42.0703
H 11.7076 4.28277 41.1534
H 12.5947 3.70947 42.2379
Ow 39.7337 31.2906 28.6725
H 39.2542 31.4556 29.4844
H 39.2951 31.8361 28.0196
Ow 10.5882 9.67524 36.1991
H 9.99548 10.0291 36.8622
H 10.1795 8.85406 35.9256
Ow 17.8007 15.788 25.6328
H 17.1486 15.8634 24.9362
H 18.4428 15.1642 25.2939
Ow 45.6892 47.9531 8.68798
H 45.8681 47.4186 7.91436
H 44.7432 48.0976 8.66635
Ow 19.1272 48.2984 41.2199
H 19.4375 47.885 42.0255
H 18.5298 48.9847 41.517
Ow 16.3624 35.7812 15.2145
H 15.6289 35.5116 15.7672
H 17.0647 35.1682 15.4318
Ow 51.1867 9.88617 39.1306
H 50.8819 10.2945 39.9409
H 52.0069 9.45599 39.3724
Ow 14.8408 25.6953 35.5336
H 14.9471 25.0801 34.8081
H 15.4183 25.3598 36.2193
Ow 14.6491 2.32881 1.40631
H 14.5386 2.16274 2.3425
H 14.8229 3.2683 1.34811
Ow 16.9287 26.0804 37.2621
H 17.3943 25.2445 37.2333
H 17.2011 26.4784 38.0889
Ow 51.8435 11.9098 48.0907
H 51.8788 12.7303 48.5826
H 52.0661 12.1582 47.1935
Ow 12.1814 32.9739 42.61
H 12.8619 32.6406 42.0251
H 12.6331 33.1298 43.4393
Ow 22.7937 16.6304 44.8701
H 23.4966 16.0624 44.5544
H 22.1681 16.6628 44.1463
Ow 36.8556 36.1011 31.8105
H 36.2722 35.6449 32.4169
H 36.9901 36.9614 32.2081
Ow 44.12 0.763785 1.68196
H 44.9888 0.605192 2.0511
H 44.2852 1.27872 0.89216
Ow 34.2693 44.7582 42.6105
H 33.5969 44.9985 41.9731
H 33.8687 44.9377 43.4611
Ow 38.5932 13.3876 42.8484
H 37.6483 13.3022 42.9756
H 38.7602 14.3278 42.9149
Ow 4.20414 50.7006 21.8099
H 3.28997 50.7265 21.5272
H 4.39607 51.5973 22.084
Ow 40.217 17.275 10.5578
H 40.3309 17.6432 11.434
H 41.0632 17.4066 10.1303
Ow 6.69063 21.2435 45.3324
H 6.46167 21.9423 44.7197
H 6.24771 21.4833 46.1463
Ow 20.8134 14.6287 40.1673
H 20.7373 15.4215 40.6983
H 21.2414 14.9195 39.3619
Ow 23.9272 37.671 25.4777
H 23.0496 37.4275 25.183
H 24.1889 38.3809 24.8913
Ow 21.0596 41.8121 36.4301
H 21.3898 42.288 37.1921
H 21.695 41.9964 35.7383
Ow 31.5032 15.8718 42.3534
H 31.5532 15.7396 41.4067
H 31.9024 15.086 42.7268
Ow 50.025 35.6418 15.6426
H 50.7985 35.9803 15.1917
H 49.9428 36.1902 16.4228
Ow 49.0552 32.6624 30.7685
H 48.7657 32.6156 31.6797
H 48.2925 32.9886 30.2909
Ow 13.0195 25.9574 43.2401
H 12.3639 26.5556 42.8814
H 13.5132 26.489 43.8645
Ow 45.5948 18.8139 42.9479
H 45.1651 19.0327 42.1211
H 46.4321 19.2765 42.913
Ow 40.1708 28.539 40.1482
H 40.5886 29.1058 39.4998
H 40.7834 28.5232 40.8835
Ow 20.4825 26.2411 25.0759
H 20.2228 26.652 24.2513
H 19.8353 25.5494 25.2136
Ow 24.2772 42.3465 32.5341
H 24.9983 42.9305 32.7692
H 23.5146 42.9212 32.4682
Ow 36.127 40.4709 7.31913
H 35.887 41.3976 7.31525
H 37.0781 40.4688 7.21131
Ow 13.017 7.17297 17.7884
H 13.0855 7.55265 16.9124
H 13.5717 6.39353 17.7562
Ow 51.6966 27.9515 3.62882
H 51.1363 28.1284 2.87323
H 51.2566 28.3842 4.36051
Ow 3.58465 37.3671 36.0825
H 4.17033 38.0632 36.3802
H 3.21178 37.0067 36.8871
Ow 33.13 12.3691 47.8517
H 32.2142 12.3328 47.5753
H 33.2809 11.5332 48.293
Ow 14.9245 48.9281 40.3498
H 15.1125 48.1003 40.7921
H 14.0547 49.1757 40.6635
Ow 17.5941 22.5865 23.209
H 18.4532 22.7403 22.816
H 17.0194 23.2251 22.787
Ow 45.416 28.6087 47.5023
H 44.9151 28.2995 48.2571
H 46.2886 28.2345 47.6238
Ow 0.848961 30.1008 9.26776
H 1.6746 29.8664 9.69153
H 0.862923 31.0571 9.22759
Ow 35.9492 11.0319 36.4427
H 36.7318 10.646 36.0491