created by fftool

1785 atoms
1110 bonds
555 angles
4 atom types
1 bond types
1 angle types
0.000000 27.314931 xlo xhi
0.000000 27.314931 ylo yhi
0.000000 27.314931 zlo zhi
Atoms

      1       1    1  -1.112800  7.978521e+00  1.593681e+01  2.581289e+01  # Ow water
      2       1    2   0.556400  8.353721e+00  1.532040e+01  2.518401e+01  # Hw water
      3       1    2   0.556400  8.574392e+00  1.668580e+01  2.579954e+01  # Hw water
      4       2    1  -1.112800  1.018615e+01  2.167244e+01  1.927762e+01  # Ow water
      5       2    2   0.556400  1.098174e+01  2.178036e+01  1.979877e+01  # Hw water
      6       2    2   0.556400  9.770484e+00  2.088728e+01  1.963398e+01  # Hw water
      7       3    1  -1.112800  4.121126e+00  2.785719e+00  1.664218e+00  # Ow water
      8       3    2   0.556400  5.029450e+00  3.039525e+00  1.500639e+00  # Hw water
      9       3    2   0.556400  4.102092e+00  1.842905e+00  1.499997e+00  # Hw water
     10       4    1  -1.112800  5.946769e+00  8.077514e+00  1.711095e+01  # Ow water
     11       4    2   0.556400  5.273750e+00  8.202615e+00  1.644190e+01  # Hw water
     12       4    2   0.556400  5.477375e+00  7.703292e+00  1.785651e+01  # Hw water
     13       5    1  -1.112800  2.354660e+01  1.701415e+01  1.726372e+01  # Ow water
     14       5    2   0.556400  2.367167e+01  1.796220e+01  1.722158e+01  # Hw water
     15       5    2   0.556400  2.356320e+01  1.681123e+01  1.819901e+01  # Hw water
     16       6    1  -1.112800  1.630795e+01  2.581523e+01  2.444108e+01  # Ow water
     17       6    2   0.556400  1.626526e+01  2.492994e+01  2.407961e+01  # Hw water
     18       6    2   0.556400  1.593593e+01  2.573408e+01  2.531928e+01  # Hw water
     19       7    1  -1.112800  8.833234e+00  2.000322e+00  1.990088e+01  # Ow water
     20       7    2   0.556400  8.029302e+00  1.500038e+00  1.976074e+01  # Hw water
     21       7    2   0.556400  8.722612e+00  2.394957e+00  2.076589e+01  # Hw water
     22       8    1  -1.112800  1.530716e+00  2.099825e+00  2.349675e+01  # Ow water
     23       8    2   0.556400  1.586029e+00  1.528956e+00  2.273041e+01  # Hw water
     24       8    2   0.556400  1.497893e+00  1.499350e+00  2.424145e+01  # Hw water
     25       9    1  -1.112800  1.275748e+01  2.565665e+01  5.105234e+00  # Ow water
     26       9    2   0.556400  1.208064e+01  2.580123e+01  4.444008e+00  # Hw water
     27       9    2   0.556400  1.358120e+01  2.581489e+01  4.644076e+00  # Hw water
     28      10    1  -1.112800  3.796348e+00  4.738409e+00  1.329471e+01  # Ow water
     29      10    2   0.556400  3.948213e+00  3.883022e+00  1.369656e+01  # Hw water
     30      10    2   0.556400  4.481917e+00  5.299194e+00  1.365768e+01  # Hw water
     31      11    1  -1.112800  1.063409e+01  6.369695e+00  2.104583e+00  # Ow water
     32      11    2   0.556400  1.131105e+01  6.870243e+00  1.649163e+00  # Hw water
     33      11    2   0.556400  9.879976e+00  6.394765e+00  1.515592e+00  # Hw water
     34      12    1  -1.112800  9.888359e+00  1.222435e+01  8.077460e+00  # Ow water
     35      12    2   0.556400  9.254284e+00  1.223321e+01  7.360453e+00  # Hw water
     36      12    2   0.556400  1.043906e+01  1.146148e+01  7.901412e+00  # Hw water
     37      13    1  -1.112800  1.142790e+01  1.531733e+00  2.072907e+01  # Ow water
     38      13    2   0.556400  1.121113e+01  2.443115e+00  2.053255e+01  # Hw water
     39      13    2   0.556400  1.238396e+01  1.499764e+00  2.069515e+01  # Hw water
     40      14    1  -1.112800  2.250603e+01  1.202188e+01  1.694736e+01  # Ow water
     41      14    2   0.556400  2.169922e+01  1.247991e+01  1.671176e+01  # Hw water
     42      14    2   0.556400  2.316565e+01  1.237523e+01  1.635047e+01  # Hw water
     43      15    1  -1.112800  2.505369e+01  1.367131e+01  2.538169e+01  # Ow water
     44      15    2   0.556400  2.499171e+01  1.451966e+01  2.582065e+01  # Hw water
     45      15    2   0.556400  2.581677e+01  1.325105e+01  2.577832e+01  # Hw water
     46      16    1  -1.112800  2.131479e+01  6.655738e+00  1.553719e+01  # Ow water
     47      16    2   0.556400  2.212892e+01  6.946703e+00  1.594799e+01  # Hw water
     48      16    2   0.556400  2.137260e+01  5.700292e+00  1.554014e+01  # Hw water
     49      17    1  -1.112800  1.162995e+01  2.064946e+00  1.601015e+01  # Ow water
     50      17    2   0.556400  1.135134e+01  1.743551e+00  1.686765e+01  # Hw water
     51      17    2   0.556400  1.246158e+01  2.507958e+00  1.617851e+01  # Hw water
     52      18    1  -1.112800  1.501774e+00  2.316556e+01  2.144288e+01  # Ow water
     53      18    2   0.556400  1.499839e+00  2.337667e+01  2.050925e+01  # Hw water
     54      18    2   0.556400  1.966804e+00  2.233081e+01  2.149920e+01  # Hw water
     55      19    1  -1.112800  1.499971e+00  1.051016e+01  2.500779e+01  # Ow water
     56      19    2   0.556400  1.928012e+00  1.022466e+01  2.581494e+01  # Hw water
     57      19    2   0.556400  1.590054e+00  9.766208e+00  2.441226e+01  # Hw water
     58      20    1  -1.112800  5.291257e+00  2.549139e+01  2.499354e+01  # Ow water
     59      20    2   0.556400  5.533057e+00  2.456554e+01  2.496963e+01  # Hw water
     60      20    2   0.556400  5.661204e+00  2.581491e+01  2.581494e+01  # Hw water
     61      21    1  -1.112800  6.151464e+00  1.443035e+01  1.372080e+01  # Ow water
     62      21    2   0.556400  6.869237e+00  1.478053e+01  1.319316e+01  # Hw water
     63      21    2   0.556400  6.275368e+00  1.348155e+01  1.369503e+01  # Hw water
     64      22    1  -1.112800  2.543963e+01  5.946375e+00  3.238121e+00  # Ow water
     65      22    2   0.556400  2.582002e+01  5.529339e+00  4.011178e+00  # Hw water
     66      22    2   0.556400  2.581986e+01  5.472686e+00  2.498339e+00  # Hw water
     67      23    1  -1.112800  1.559413e+01  6.112059e+00  1.247954e+01  # Ow water
     68      23    2   0.556400  1.553327e+01  6.527823e+00  1.161951e+01  # Hw water
     69      23    2   0.556400  1.645734e+01  5.698444e+00  1.248560e+01  # Hw water
     70      24    1  -1.112800  2.322035e+01  1.650798e+00  2.062545e+01  # Ow water
     71      24    2   0.556400  2.350930e+01  2.114070e+00  1.983925e+01  # Hw water
     72      24    2   0.556400  2.228557e+01  1.499950e+00  2.048520e+01  # Hw water
     73      25    1  -1.112800  9.453776e+00  2.517187e+01  5.660393e+00  # Ow water
     74      25    2   0.556400  1.017257e+01  2.566675e+01  6.053667e+00  # Hw water
     75      25    2   0.556400  9.712823e+00  2.505811e+01  4.745963e+00  # Hw water
     76      26    1  -1.112800  2.249273e+00  1.751095e+01  2.165962e+01  # Ow water
     77      26    2   0.556400  1.504833e+00  1.693659e+01  2.183893e+01  # Hw water
     78      26    2   0.556400  2.871294e+00  1.695732e+01  2.118758e+01  # Hw water
     79      27    1  -1.112800  1.240543e+01  2.563348e+01  2.005528e+01  # Ow water
     80      27    2   0.556400  1.332020e+01  2.581489e+01  2.027094e+01  # Hw water
     81      27    2   0.556400  1.240829e+01  2.547495e+01  1.911130e+01  # Hw water
     82      28    1  -1.112800  1.085674e+01  1.365002e+01  2.497386e+01  # Ow water
     83      28    2   0.556400  1.076469e+01  1.409688e+01  2.581533e+01  # Hw water
     84      28    2   0.556400  9.958156e+00  1.346510e+01  2.470077e+01  # Hw water
     85      29    1  -1.112800  1.104322e+01  1.499741e+00  2.480746e+01  # Ow water
     86      29    2   0.556400  1.022838e+01  1.499856e+00  2.430519e+01  # Hw water
     87      29    2   0.556400  1.076144e+01  1.522834e+00  2.572195e+01  # Hw water
     88      30    1  -1.112800  1.828523e+01  1.887893e+01  9.196961e+00  # Ow water
     89      30    2   0.556400  1.898573e+01  1.939619e+01  9.594419e+00  # Hw water
     90      30    2   0.556400  1.834548e+01  1.802467e+01  9.624564e+00  # Hw water
     91      31    1  -1.112800  1.508753e+00  1.460305e+01  1.072125e+01  # Ow water
     92      31    2   0.556400  1.500004e+00  1.377084e+01  1.119409e+01  # Hw water
     93      31    2   0.556400  1.501948e+00  1.526951e+01  1.140828e+01  # Hw water
     94      32    1  -1.112800  1.088884e+01  3.712552e+00  1.840229e+01  # Ow water
     95      32    2   0.556400  1.119279e+01  4.129767e+00  1.759620e+01  # Hw water
     96      32    2   0.556400  1.001299e+01  3.389951e+00  1.819004e+01  # Hw water
     97      33    1  -1.112800  5.429938e+00  2.371981e+01  1.929717e+01  # Ow water
     98      33    2   0.556400  5.724643e+00  2.340750e+01  1.844169e+01  # Hw water
     99      33    2   0.556400  5.371909e+00  2.292958e+01  1.983420e+01  # Hw water
    100      34    1  -1.112800  4.292855e+00  1.725673e+01  1.805313e+01  # Ow water
    101      34    2   0.556400  3.803782e+00  1.727406e+01  1.887577e+01  # Hw water
    102      34    2   0.556400  3.997420e+00  1.645858e+01  1.761506e+01  # Hw water
    103      35    1  -1.112800  2.569879e+01  1.183046e+01  1.204517e+01  # Ow water
    104      35    2   0.556400  2.527535e+01  1.259544e+01  1.165564e+01  # Hw water
    105      35    2   0.556400  2.581483e+01  1.206344e+01  1.296630e+01  # Hw water
    106      36    1  -1.112800  1.402709e+01  6.298490e+00  8.372007e+00  # Ow water
    107      36    2   0.556400  1.343761e+01  6.824985e+00  7.832063e+00  # Hw water
    108      36    2   0.556400  1.344614e+01  5.808630e+00  8.954044e+00  # Hw water
    109      37    1  -1.112800  5.110349e+00  1.516629e+00  1.647848e+01  # Ow water
    110      37    2   0.556400  4.226123e+00  1.500044e+00  1.611229e+01  # Hw water
    111      37    2   0.556400  5.686839e+00  1.499927e+00  1.571454e+01  # Hw water
    112      38    1  -1.112800  2.310863e+01  1.917607e+01  1.149445e+01  # Ow water
    113      38    2   0.556400  2.350669e+01  1.985589e+01  1.203817e+01  # Hw water
    114      38    2   0.556400  2.265949e+01  1.860368e+01  1.211645e+01  # Hw water
    115      39    1  -1.112800  2.313390e+01  6.723271e+00  1.961375e+01  # Ow water
    116      39    2   0.556400  2.260684e+01  6.306970e+00  1.893174e+01  # Hw water
    117      39    2   0.556400  2.249701e+01  7.176867e+00  2.016588e+01  # Hw water
    118      40    1  -1.112800  1.951754e+01  9.589486e+00  1.168958e+01  # Ow water
    119      40    2   0.556400  1.947420e+01  1.052499e+01  1.188751e+01  # Hw water
    120      40    2   0.556400  2.044191e+01  9.364434e+00  1.179509e+01  # Hw water
    121      41    1  -1.112800  6.802742e+00  6.121999e+00  1.318266e+01  # Ow water
    122      41    2   0.556400  7.406234e+00  6.229687e+00  1.391780e+01  # Hw water
    123      41    2   0.556400  6.681998e+00  7.007413e+00  1.283960e+01  # Hw water
    124      42    1  -1.112800  3.944276e+00  9.438763e+00  2.130685e+00  # Ow water
    125      42    2   0.556400  3.952117e+00  8.577160e+00  1.713782e+00  # Hw water
    126      42    2   0.556400  4.374020e+00  1.001509e+01  1.498704e+00  # Hw water
    127      43    1  -1.112800  1.862419e+01  9.646583e+00  1.885867e+01  # Ow water
    128      43    2   0.556400  1.881636e+01  8.714108e+00  1.875973e+01  # Hw water
    129      43    2   0.556400  1.846484e+01  9.954755e+00  1.796655e+01  # Hw water
    130      44    1  -1.112800  6.800325e+00  1.663884e+01  1.608532e+01  # Ow water
    131      44    2   0.556400  6.272141e+00  1.631946e+01  1.535371e+01  # Hw water
    132      44    2   0.556400  6.375763e+00  1.627768e+01  1.686348e+01  # Hw water
    133      45    1  -1.112800  1.500870e+00  1.790107e+01  2.086463e+00  # Ow water
    134      45    2   0.556400  1.500063e+00  1.714457e+01  1.500006e+00  # Hw water
    135      45    2   0.556400  1.516276e+00  1.865838e+01  1.501251e+00  # Hw water
    136      46    1  -1.112800  2.400320e+00  2.375118e+01  2.397905e+01  # Ow water
    137      46    2   0.556400  2.894175e+00  2.342199e+01  2.473003e+01  # Hw water
    138      46    2   0.556400  1.500574e+00  2.346716e+01  2.414034e+01  # Hw water
    139      47    1  -1.112800  2.520695e+01  2.194828e+01  1.500223e+00  # Ow water
    140      47    2   0.556400  2.576997e+01  2.272239e+01  1.499875e+00  # Hw water
    141      47    2   0.556400  2.581499e+01  2.120929e+01  1.519918e+00  # Hw water
    142      48    1  -1.112800  3.961717e+00  7.145409e+00  3.762938e+00  # Ow water
    143      48    2   0.556400  4.191227e+00  7.989192e+00  4.152277e+00  # Hw water
    144      48    2   0.556400  3.561454e+00  6.651761e+00  4.478710e+00  # Hw water
    145      49    1  -1.112800  1.425473e+01  1.500018e+00  1.834085e+01  # Ow water
    146      49    2   0.556400  1.455156e+01  1.865655e+00  1.750753e+01  # Hw water
    147      49    2   0.556400  1.333082e+01  1.744398e+00  1.839464e+01  # Hw water
    148      50    1  -1.112800  1.526596e+00  5.295102e+00  1.858908e+01  # Ow water
    149      50    2   0.556400  1.507715e+00  6.243203e+00  1.845879e+01  # Hw water
    150      50    2   0.556400  1.499934e+00  4.930698e+00  1.770436e+01  # Hw water
    151      51    1  -1.112800  1.834686e+00  2.070198e+01  2.571464e+01  # Ow water
    152      51    2   0.556400  1.554153e+00  2.161163e+01  2.581490e+01  # Hw water
    153      51    2   0.556400  1.566773e+00  2.046467e+01  2.482687e+01  # Hw water
    154      52    1  -1.112800  2.422965e+01  6.361588e+00  9.112267e+00  # Ow water
    155      52    2   0.556400  2.518240e+01  6.342343e+00  9.202351e+00  # Hw water
    156      52    2   0.556400  2.392601e+01  6.849462e+00  9.877782e+00  # Hw water
    157      53    1  -1.112800  7.969609e+00  2.311970e+00  1.007807e+01  # Ow water
    158      53    2   0.556400  8.130527e+00  1.499988e+00  9.597426e+00  # Hw water
    159      53    2   0.556400  7.898315e+00  2.982749e+00  9.398952e+00  # Hw water
    160      54    1  -1.112800  1.018059e+01  9.916986e+00  1.665123e+01  # Ow water
    161      54    2   0.556400  1.063880e+01  9.208831e+00  1.710377e+01  # Hw water
    162      54    2   0.556400  1.015073e+01  9.637356e+00  1.573627e+01  # Hw water
    163      55    1  -1.112800  1.353140e+01  1.770062e+01  2.002068e+01  # Ow water
    164      55    2   0.556400  1.353591e+01  1.708658e+01  2.075496e+01  # Hw water
    165      55    2   0.556400  1.290173e+01  1.733038e+01  1.940209e+01  # Hw water
    166      56    1  -1.112800  3.800409e+00  5.872651e+00  1.945287e+01  # Ow water
    167      56    2   0.556400  4.542024e+00  5.608076e+00  1.890859e+01  # Hw water
    168      56    2   0.556400  3.940782e+00  6.805944e+00  1.961252e+01  # Hw water
    169      57    1  -1.112800  3.837199e+00  2.244360e+01  1.018690e+01  # Ow water
    170      57    2   0.556400  3.650980e+00  2.338211e+01  1.021418e+01  # Hw water
    171      57    2   0.556400  4.552223e+00  2.235904e+01  9.556167e+00  # Hw water
    172      58    1  -1.112800  1.905085e+01  2.181135e+01  1.291100e+01  # Ow water
    173      58    2   0.556400  1.850537e+01  2.144550e+01  1.360730e+01  # Hw water
    174      58    2   0.556400  1.888969e+01  2.275407e+01  1.295016e+01  # Hw water
    175      59    1  -1.112800  2.356733e+00  1.372727e+01  1.709938e+01  # Ow water
    176      59    2   0.556400  3.083409e+00  1.316109e+01  1.735941e+01  # Hw water
    177      59    2   0.556400  2.776515e+00  1.448330e+01  1.668898e+01  # Hw water
    178      60    1  -1.112800  7.610529e+00  1.924179e+01  7.109979e+00  # Ow water
    179      60    2   0.556400  6.850428e+00  1.869607e+01  7.311640e+00  # Hw water
    180      60    2   0.556400  7.276802e+00  1.990383e+01  6.504546e+00  # Hw water
    181      61    1  -1.112800  9.302681e+00  7.878884e+00  1.380577e+01  # Ow water
    182      61    2   0.556400  8.608050e+00  8.402945e+00  1.420461e+01  # Hw water
    183      61    2   0.556400  9.078944e+00  7.851998e+00  1.287547e+01  # Hw water
    184      62    1  -1.112800  2.523021e+01  1.533280e+00  1.274150e+01  # Ow water
    185      62    2   0.556400  2.581540e+01  1.499823e+00  1.198476e+01  # Hw water
    186      62    2   0.556400  2.581484e+01  1.499571e+00  1.349866e+01  # Hw water
    187      63    1  -1.112800  7.199660e+00  6.788128e+00  7.021809e+00  # Ow water
    188      63    2   0.556400  7.842799e+00  6.302227e+00  6.505572e+00  # Hw water
    189      63    2   0.556400  6.477517e+00  6.950030e+00  6.414746e+00  # Hw water
    190      64    1  -1.112800  1.478927e+01  1.505067e+01  1.705321e+00  # Ow water
    191      64    2   0.556400  1.555271e+01  1.451101e+01  1.500004e+00  # Hw water
    192      64    2   0.556400  1.403892e+01  1.449296e+01  1.499969e+00  # Hw water
    193      65    1  -1.112800  1.928356e+01  6.503466e+00  1.715132e+01  # Ow water
    194      65    2   0.556400  1.921525e+01  7.347367e+00  1.670479e+01  # Hw water
    195      65    2   0.556400  1.999881e+01  6.620043e+00  1.777667e+01  # Hw water
    196      66    1  -1.112800  1.882235e+01  1.553577e+00  9.495537e+00  # Ow water
    197      66    2   0.556400  1.863223e+01  1.500023e+00  8.558940e+00  # Hw water
    198      66    2   0.556400  1.811245e+01  2.085981e+00  9.854464e+00  # Hw water
    199      67    1  -1.112800  2.090429e+01  1.448496e+01  7.108780e+00  # Ow water
    200      67    2   0.556400  2.009504e+01  1.494360e+01  7.334608e+00  # Hw water
    201      67    2   0.556400  2.061435e+01  1.363273e+01  6.783408e+00  # Hw water
    202      68    1  -1.112800  1.657619e+01  1.903169e+01  1.582091e+01  # Ow water
    203      68    2   0.556400  1.587897e+01  1.900351e+01  1.516568e+01  # Hw water
    204      68    2   0.556400  1.705925e+01  1.983401e+01  1.562297e+01  # Hw water
    205      69    1  -1.112800  2.205332e+01  3.817532e+00  9.946526e+00  # Ow water
    206      69    2   0.556400  2.245724e+01  4.346170e+00  1.063472e+01  # Hw water
    207      69    2   0.556400  2.258321e+01  3.991000e+00  9.168478e+00  # Hw water
    208      70    1  -1.112800  4.743316e+00  1.244823e+01  2.541933e+01  # Ow water
    209      70    2   0.556400  5.373941e+00  1.184649e+01  2.581488e+01  # Hw water
    210      70    2   0.556400  3.902115e+00  1.199769e+01  2.549431e+01  # Hw water
    211      71    1  -1.112800  9.864292e+00  2.571495e+01  2.244586e+01  # Ow water
    212      71    2   0.556400  9.290278e+00  2.581467e+01  2.168639e+01  # Hw water
    213      71    2   0.556400  1.074851e+01  2.581488e+01  2.209315e+01  # Hw water
    214      72    1  -1.112800  1.186215e+01  2.581490e+01  2.490162e+01  # Ow water
    215      72    2   0.556400  1.092411e+01  2.581490e+01  2.471110e+01  # Hw water
    216      72    2   0.556400  1.192156e+01  2.553458e+01  2.581492e+01  # Hw water
    217      73    1  -1.112800  1.123275e+01  6.238882e+00  1.557821e+01  # Ow water
    218      73    2   0.556400  1.135569e+01  7.187883e+00  1.560083e+01  # Hw water
    219      73    2   0.556400  1.200807e+01  5.885972e+00  1.601474e+01  # Hw water
    220      74    1  -1.112800  9.979922e+00  8.795564e+00  2.581526e+01  # Ow water
    221      74    2   0.556400  1.092237e+01  8.962930e+00  2.581326e+01  # Hw water
    222      74    2   0.556400  9.581607e+00  9.665705e+00  2.579459e+01  # Hw water
    223      75    1  -1.112800  1.359290e+01  8.506495e+00  5.369684e+00  # Ow water
    224      75    2   0.556400  1.410719e+01  7.733162e+00  5.601390e+00  # Hw water
    225      75    2   0.556400  1.363080e+01  9.062027e+00  6.148257e+00  # Hw water
    226      76    1  -1.112800  1.353277e+01  1.368683e+01  3.811651e+00  # Ow water
    227      76    2   0.556400  1.376116e+01  1.397038e+01  4.696902e+00  # Hw water
    228      76    2   0.556400  1.263959e+01  1.335167e+01  3.889938e+00  # Hw water
    229      77    1  -1.112800  1.554583e+01  8.848458e+00  9.334567e+00  # Ow water
    230      77    2   0.556400  1.583739e+01  8.196763e+00  8.696981e+00  # Hw water
    231      77    2   0.556400  1.510293e+01  9.515712e+00  8.810310e+00  # Hw water
    232      78    1  -1.112800  2.172793e+01  2.214069e+01  1.256775e+01  # Ow water
    233      78    2   0.556400  2.138395e+01  2.291046e+01  1.302092e+01  # Hw water
    234      78    2   0.556400  2.237145e+01  2.177317e+01  1.317359e+01  # Hw water
    235      79    1  -1.112800  1.632307e+01  1.786357e+00  2.560245e+01  # Ow water
    236      79    2   0.556400  1.664980e+01  2.606950e+00  2.523353e+01  # Hw water
    237      79    2   0.556400  1.564656e+01  1.499915e+00  2.498883e+01  # Hw water
    238      80    1  -1.112800  2.107785e+01  2.102983e+01  2.150525e+01  # Ow water
    239      80    2   0.556400  2.086208e+01  2.132646e+01  2.238937e+01  # Hw water
    240      80    2   0.556400  2.203261e+01  2.096159e+01  2.150133e+01  # Hw water
    241      81    1  -1.112800  1.172037e+01  6.464677e+00  1.270604e+01  # Ow water
    242      81    2   0.556400  1.260384e+01  6.390041e+00  1.306679e+01  # Hw water
    243      81    2   0.556400  1.153349e+01  7.403334e+00  1.272114e+01  # Hw water
    244      82    1  -1.112800  1.454022e+01  1.998028e+00  1.525297e+00  # Ow water
    245      82    2   0.556400  1.398012e+01  1.509606e+00  2.128592e+00  # Hw water
    246      82    2   0.556400  1.535721e+01  1.499928e+00  1.499758e+00  # Hw water
    247      83    1  -1.112800  1.487332e+01  1.223674e+01  1.110670e+01  # Ow water
    248      83    2   0.556400  1.415017e+01  1.168356e+01  1.140213e+01  # Hw water
    249      83    2   0.556400  1.528460e+01  1.173753e+01  1.040110e+01  # Hw water
    250      84    1  -1.112800  5.697320e+00  2.573683e+01  8.971989e+00  # Ow water
    251      84    2   0.556400  4.756686e+00  2.581489e+01  8.812791e+00  # Hw water
    252      84    2   0.556400  5.778556e+00  2.571759e+01  9.925540e+00  # Hw water
    253      85    1  -1.112800  2.360636e+01  1.235704e+01  2.144274e+01  # Ow water
    254      85    2   0.556400  2.345679e+01  1.164458e+01  2.206424e+01  # Hw water
    255      85    2   0.556400  2.437055e+01  1.207873e+01  2.093798e+01  # Hw water
    256      86    1  -1.112800  7.993869e+00  2.491612e+01  2.578737e+01  # Ow water
    257      86    2   0.556400  8.362554e+00  2.579938e+01  2.580000e+01  # Hw water
    258      86    2   0.556400  8.756002e+00  2.433755e+01  2.581266e+01  # Hw water
    259      87    1  -1.112800  1.969556e+01  1.989010e+01  3.680147e+00  # Ow water
    260      87    2   0.556400  1.908785e+01  1.915059e+01  3.687313e+00  # Hw water
    261      87    2   0.556400  2.050269e+01  1.953385e+01  3.308857e+00  # Hw water
    262      88    1  -1.112800  2.374908e+01  4.855534e+00  6.843652e+00  # Ow water
    263      88    2   0.556400  2.291224e+01  5.306525e+00  6.955625e+00  # Hw water
    264      88    2   0.556400  2.351214e+01  3.935489e+00  6.726996e+00  # Hw water
    265      89    1  -1.112800  2.295367e+01  9.191799e+00  9.885031e+00  # Ow water
    266      89    2   0.556400  2.358043e+01  9.832274e+00  1.022147e+01  # Hw water
    267      89    2   0.556400  2.320718e+01  9.065329e+00  8.970720e+00  # Hw water
    268      90    1  -1.112800  2.013463e+01  1.584611e+01  2.306083e+01  # Ow water
    269      90    2   0.556400  1.994897e+01  1.514244e+01  2.368260e+01  # Hw water
    270      90    2   0.556400  2.075640e+01  1.641241e+01  2.351793e+01  # Hw water
    271      91    1  -1.112800  5.350174e+00  1.973628e+00  2.051963e+01  # Ow water
    272      91    2   0.556400  5.444255e+00  1.518543e+00  1.968280e+01  # Hw water
    273      91    2   0.556400  5.929178e+00  1.499975e+00  2.111681e+01  # Hw water
    274      92    1  -1.112800  2.444956e+01  1.498636e+00  2.084347e+00  # Ow water
    275      92    2   0.556400  2.369290e+01  1.498827e+00  1.498103e+00  # Hw water
    276      92    2   0.556400  2.520680e+01  1.498610e+00  1.498831e+00  # Hw water
    277      93    1  -1.112800  5.853146e+00  1.520720e+00  2.516713e+01  # Ow water
    278      93    2   0.556400  6.018186e+00  1.963250e+00  2.433457e+01  # Hw water
    279      93    2   0.556400  5.840426e+00  2.225233e+00  2.581500e+01  # Hw water
    280      94    1  -1.112800  1.542972e+01  2.530393e+01  1.736180e+01  # Ow water
    281      94    2   0.556400  1.467068e+01  2.581413e+01  1.764424e+01  # Hw water
    282      94    2   0.556400  1.580637e+01  2.581184e+01  1.664319e+01  # Hw water
    283      95    1  -1.112800  1.291447e+01  7.856524e+00  2.323333e+01  # Ow water
    284      95    2   0.556400  1.298145e+01  6.906658e+00  2.333078e+01  # Hw water
    285      95    2   0.556400  1.380581e+01  8.140411e+00  2.303047e+01  # Hw water
    286      96    1  -1.112800  4.193081e+00  1.494696e+00  9.480378e+00  # Ow water
    287      96    2   0.556400  3.369859e+00  1.559112e+00  8.996246e+00  # Hw water
    288      96    2   0.556400  3.946687e+00  1.642248e+00  1.039348e+01  # Hw water
    289      97    1  -1.112800  7.773420e+00  1.072946e+01  1.457935e+01  # Ow water
    290      97    2   0.556400  7.357430e+00  1.028602e+01  1.531863e+01  # Hw water
    291      97    2   0.556400  8.205086e+00  1.149033e+01  1.496791e+01  # Hw water
    292      98    1  -1.112800  2.547210e+01  2.063258e+01  2.225152e+01  # Ow water
    293      98    2   0.556400  2.581490e+01  2.135058e+01  2.278368e+01  # Hw water
    294      98    2   0.556400  2.452242e+01  2.068707e+01  2.235809e+01  # Hw water
    295      99    1  -1.112800  2.992060e+00  6.467075e+00  1.641491e+01  # Ow water
    296      99    2   0.556400  3.135752e+00  6.366225e+00  1.547394e+01  # Hw water
    297      99    2   0.556400  2.696830e+00  7.371867e+00  1.651698e+01  # Hw water
    298     100    1  -1.112800  2.478108e+01  6.613430e+00  1.773643e+01  # Ow water
    299     100    2   0.556400  2.448831e+01  6.584353e+00  1.682556e+01  # Hw water
    300     100    2   0.556400  2.571063e+01  6.388451e+00  1.769703e+01  # Hw water
    301     101    1  -1.112800  2.581505e+01  2.355975e+01  4.643659e+00  # Ow water
    302     101    2   0.556400  2.506311e+01  2.297203e+01  4.717103e+00  # Hw water
    303     101    2   0.556400  2.580627e+01  2.384778e+01  3.730867e+00  # Hw water
    304     102    1  -1.112800  3.917720e+00  1.691888e+01  2.095021e+00  # Ow water
    305     102    2   0.556400  3.864505e+00  1.615573e+01  1.519686e+00  # Hw water
    306     102    2   0.556400  4.024704e+00  1.766100e+01  1.500020e+00  # Hw water
    307     103    1  -1.112800  7.640056e+00  1.261491e+01  2.509084e+01  # Ow water
    308     103    2   0.556400  7.879815e+00  1.179955e+01  2.465046e+01  # Hw water
    309     103    2   0.556400  7.092501e+00  1.307804e+01  2.445687e+01  # Hw water
    310     104    1  -1.112800  6.873502e+00  2.223166e+01  1.953641e+00  # Ow water
    311     104    2   0.556400  7.042246e+00  2.305978e+01  2.403059e+00  # Hw water
    312     104    2   0.556400  7.487093e+00  2.161366e+01  2.350880e+00  # Hw water
    313     105    1  -1.112800  1.861330e+00  1.611142e+01  4.698099e+00  # Ow water
    314     105    2   0.556400  2.385845e+00  1.681150e+01  4.309502e+00  # Hw water
    315     105    2   0.556400  1.500000e+00  1.563804e+01  3.948714e+00  # Hw water
    316     106    1  -1.112800  2.197667e+01  6.992574e+00  1.260983e+01  # Ow water
    317     106    2   0.556400  2.207371e+01  6.556022e+00  1.176352e+01  # Hw water
    318     106    2   0.556400  2.233091e+01  7.870588e+00  1.246897e+01  # Hw water
    319     107    1  -1.112800  1.191954e+01  4.214798e+00  2.320694e+01  # Ow water
    320     107    2   0.556400  1.177673e+01  4.780813e+00  2.396553e+01  # Hw water
    321     107    2   0.556400  1.124329e+01  3.541256e+00  2.327936e+01  # Hw water
    322     108    1  -1.112800  2.464462e+00  1.916058e+00  1.411962e+01  # Ow water
    323     108    2   0.556400  3.071978e+00  1.499672e+00  1.350825e+01  # Hw water
    324     108    2   0.556400  1.621161e+00  1.500048e+00  1.394071e+01  # Hw water
    325     109    1  -1.112800  6.919796e+00  2.306124e+01  2.313736e+01  # Ow water
    326     109    2   0.556400  7.724878e+00  2.341023e+01  2.351984e+01  # Hw water
    327     109    2   0.556400  7.067042e+00  2.309905e+01  2.219231e+01  # Hw water
    328     110    1  -1.112800  2.294187e+01  2.501426e+01  8.789811e+00  # Ow water
    329     110    2   0.556400  2.245538e+01  2.581230e+01  8.996427e+00  # Hw water
    330     110    2   0.556400  2.235564e+01  2.430252e+01  9.046704e+00  # Hw water
    331     111    1  -1.112800  7.667009e+00  1.389577e+01  2.165423e+00  # Ow water
    332     111    2   0.556400  7.509525e+00  1.322606e+01  1.499908e+00  # Hw water
    333     111    2   0.556400  6.795053e+00  1.422034e+01  2.390314e+00  # Hw water
    334     112    1  -1.112800  7.038280e+00  4.366952e+00  2.340385e+01  # Ow water
    335     112    2   0.556400  7.565103e+00  3.944863e+00  2.272522e+01  # Hw water
    336     112    2   0.556400  7.461315e+00  5.214105e+00  2.354385e+01  # Hw water
    337     113    1  -1.112800  1.151912e+01  7.019803e+00  5.428002e+00  # Ow water
    338     113    2   0.556400  1.065936e+01  7.324947e+00  5.717717e+00  # Hw water
    339     113    2   0.556400  1.143454e+01  6.929891e+00  4.478797e+00  # Hw water
    340     114    1  -1.112800  4.733185e+00  2.568115e+01  5.368680e+00  # Ow water
    341     114    2   0.556400  3.838062e+00  2.581489e+01  5.680284e+00  # Hw water
    342     114    2   0.556400  5.254548e+00  2.559376e+01  6.166659e+00  # Hw water
    343     115    1  -1.112800  2.559652e+01  1.557830e+01  1.369645e+01  # Ow water
    344     115    2   0.556400  2.581501e+01  1.469660e+01  1.339463e+01  # Hw water
    345     115    2   0.556400  2.580970e+01  1.557225e+01  1.462959e+01  # Hw water
    346     116    1  -1.112800  1.119864e+01  1.964220e+01  2.136000e+01  # Ow water