created by fftool

3216 atoms
2000 bonds
1000 angles
4 atom types
1 bond types
1 angle types
0.000000 33.236099 xlo xhi
0.000000 33.236099 ylo yhi
0.000000 33.236099 zlo zhi
Atoms

      1       1    1  -1.112800  2.083324e+01  2.800045e+01  9.090382e+00  # Ow water
      2       1    2   0.556400  2.060190e+01  2.708359e+01  8.941830e+00  # Hw water
      3       1    2   0.556400  2.000376e+01  2.842473e+01  9.309886e+00  # Hw water
      4       2    1  -1.112800  1.353027e+01  2.017348e+00  3.091046e+01  # Ow water
      5       2    2   0.556400  1.271098e+01  1.523813e+00  3.087299e+01  # Hw water
      6       2    2   0.556400  1.402945e+01  1.600811e+00  3.161299e+01  # Hw water
      7       3    1  -1.112800  4.841525e+00  3.173612e+01  2.933561e+01  # Ow water
      8       3    2   0.556400  5.274903e+00  3.096335e+01  2.897333e+01  # Hw water
      9       3    2   0.556400  4.003623e+00  3.140970e+01  2.966363e+01  # Hw water
     10       4    1  -1.112800  4.629368e+00  5.466701e+00  6.527758e+00  # Ow water
     11       4    2   0.556400  3.710143e+00  5.583805e+00  6.287883e+00  # Hw water
     12       4    2   0.556400  4.636101e+00  4.682702e+00  7.076874e+00  # Hw water
     13       5    1  -1.112800  1.249524e+01  1.933477e+00  5.899014e+00  # Ow water
     14       5    2   0.556400  1.168838e+01  1.500062e+00  6.177143e+00  # Hw water
     15       5    2   0.556400  1.272959e+01  1.500459e+00  5.078160e+00  # Hw water
     16       6    1  -1.112800  1.030427e+01  2.816684e+01  3.171546e+01  # Ow water
     17       6    2   0.556400  1.095347e+01  2.746375e+01  3.173596e+01  # Hw water
     18       6    2   0.556400  1.081776e+01  2.896387e+01  3.158393e+01  # Hw water
     19       7    1  -1.112800  2.772169e+01  2.947550e+01  2.909398e+01  # Ow water
     20       7    2   0.556400  2.812507e+01  2.960551e+01  2.995224e+01  # Hw water
     21       7    2   0.556400  2.693004e+01  2.896885e+01  2.927515e+01  # Hw water
     22       8    1  -1.112800  2.415432e+01  1.500301e+00  2.553126e+01  # Ow water
     23       8    2   0.556400  2.320754e+01  1.509830e+00  2.539075e+01  # Hw water
     24       8    2   0.556400  2.452794e+01  1.525849e+00  2.465036e+01  # Hw water
     25       9    1  -1.112800  3.097037e+01  1.395961e+01  2.218424e+01  # Ow water
     26       9    2   0.556400  3.133033e+01  1.469760e+01  2.267621e+01  # Hw water
     27       9    2   0.556400  3.173617e+01  1.352519e+01  2.180866e+01  # Hw water
     28      10    1  -1.112800  1.642559e+00  1.109291e+01  2.929033e+01  # Ow water
     29      10    2   0.556400  1.721986e+00  1.140889e+01  3.019037e+01  # Hw water
     30      10    2   0.556400  1.535136e+00  1.014572e+01  2.937712e+01  # Hw water
     31      11    1  -1.112800  1.584886e+00  8.934712e+00  1.446036e+01  # Ow water
     32      11    2   0.556400  1.500048e+00  8.081575e+00  1.403470e+01  # Hw water
     33      11    2   0.556400  1.565390e+00  8.738566e+00  1.539704e+01  # Hw water
     34      12    1  -1.112800  2.084134e+01  2.288219e+01  1.682046e+01  # Ow water
     35      12    2   0.556400  2.037227e+01  2.368260e+01  1.658478e+01  # Hw water
     36      12    2   0.556400  2.025219e+01  2.217365e+01  1.656143e+01  # Hw water
     37      13    1  -1.112800  2.441505e+01  8.209762e+00  2.207739e+01  # Ow water
     38      13    2   0.556400  2.393836e+01  8.376291e+00  2.126421e+01  # Hw water
     39      13    2   0.556400  2.400329e+01  7.425741e+00  2.244070e+01  # Hw water
     40      14    1  -1.112800  2.478165e+01  3.126241e+01  2.259280e+01  # Ow water
     41      14    2   0.556400  2.404275e+01  3.173618e+01  2.221098e+01  # Hw water
     42      14    2   0.556400  2.453592e+01  3.033977e+01  2.252514e+01  # Hw water
     43      15    1  -1.112800  3.897021e+00  2.248235e+01  1.515486e+01  # Ow water
     44      15    2   0.556400  4.115514e+00  2.206004e+01  1.432411e+01  # Hw water
     45      15    2   0.556400  3.921863e+00  2.177389e+01  1.579805e+01  # Hw water
     46      16    1  -1.112800  8.433616e+00  2.560877e+01  2.281203e+01  # Ow water
     47      16    2   0.556400  8.219802e+00  2.557823e+01  2.187952e+01  # Hw water
     48      16    2   0.556400  8.776040e+00  2.649176e+01  2.295094e+01  # Hw water
     49      17    1  -1.112800  2.704091e+00  2.406856e+01  1.757171e+01  # Ow water
     50      17    2   0.556400  2.002238e+00  2.354953e+01  1.717897e+01  # Hw water
     51      17    2   0.556400  3.319080e+00  2.422224e+01  1.685449e+01  # Hw water
     52      18    1  -1.112800  9.039866e+00  1.903095e+01  1.647224e+01  # Ow water
     53      18    2   0.556400  9.923161e+00  1.928370e+01  1.674082e+01  # Hw water
     54      18    2   0.556400  9.133025e+00  1.813219e+01  1.615636e+01  # Hw water
     55      19    1  -1.112800  2.665039e+01  2.702664e+01  1.329942e+01  # Ow water
     56      19    2   0.556400  2.573899e+01  2.720364e+01  1.353234e+01  # Hw water
     57      19    2   0.556400  2.709658e+01  2.692072e+01  1.413961e+01  # Hw water
     58      20    1  -1.112800  5.262329e+00  1.804068e+00  2.812804e+01  # Ow water
     59      20    2   0.556400  4.945675e+00  1.499988e+00  2.897862e+01  # Hw water
     60      20    2   0.556400  4.467778e+00  1.953666e+00  2.761565e+01  # Hw water
     61      21    1  -1.112800  2.995742e+01  6.558849e+00  1.191306e+01  # Ow water
     62      21    2   0.556400  3.063947e+01  6.302657e+00  1.129226e+01  # Hw water
     63      21    2   0.556400  2.920623e+01  6.784833e+00  1.136455e+01  # Hw water
     64      22    1  -1.112800  9.735860e+00  5.546416e+00  2.159493e+00  # Ow water
     65      22    2   0.556400  9.161390e+00  5.157288e+00  1.500105e+00  # Hw water
     66      22    2   0.556400  1.046208e+01  5.915858e+00  1.657156e+00  # Hw water
     67      23    1  -1.112800  1.549797e+00  2.014755e+01  5.446487e+00  # Ow water
     68      23    2   0.556400  1.499928e+00  2.011973e+01  6.401980e+00  # Hw water
     69      23    2   0.556400  1.606500e+00  1.922928e+01  5.182292e+00  # Hw water
     70      24    1  -1.112800  1.288681e+01  4.396682e+00  1.953360e+00  # Ow water
     71      24    2   0.556400  1.206124e+01  3.991722e+00  1.687522e+00  # Hw water
     72      24    2   0.556400  1.356015e+01  3.887208e+00  1.502499e+00  # Hw water
     73      25    1  -1.112800  7.930303e+00  1.918242e+01  3.113215e+01  # Ow water
     74      25    2   0.556400  7.117769e+00  1.936100e+01  3.160557e+01  # Hw water
     75      25    2   0.556400  8.623465e+00  1.944908e+01  3.173601e+01  # Hw water
     76      26    1  -1.112800  9.469346e+00  2.053517e+00  2.483964e+01  # Ow water
     77      26    2   0.556400  1.004701e+01  1.550662e+00  2.541381e+01  # Hw water
     78      26    2   0.556400  8.696195e+00  1.499508e+00  2.473221e+01  # Hw water
     79      27    1  -1.112800  1.516295e+00  1.636697e+01  1.655455e+00  # Ow water
     80      27    2   0.556400  2.406011e+00  1.668398e+01  1.500075e+00  # Hw water
     81      27    2   0.556400  1.500000e+00  1.614428e+01  2.586246e+00  # Hw water
     82      28    1  -1.112800  5.540736e+00  1.331896e+01  1.622488e+01  # Ow water
     83      28    2   0.556400  6.472384e+00  1.312869e+01  1.633470e+01  # Hw water
     84      28    2   0.556400  5.096951e+00  1.252428e+01  1.652112e+01  # Hw water
     85      29    1  -1.112800  2.152488e+00  2.043239e+01  1.104888e+01  # Ow water
     86      29    2   0.556400  2.803044e+00  2.036286e+01  1.174757e+01  # Hw water
     87      29    2   0.556400  1.499988e+00  1.976502e+01  1.126123e+01  # Hw water
     88      30    1  -1.112800  4.570468e+00  2.808670e+01  1.821785e+00  # Ow water
     89      30    2   0.556400  3.769131e+00  2.849956e+01  1.499869e+00  # Hw water
     90      30    2   0.556400  4.285162e+00  2.723551e+01  2.153916e+00  # Hw water
     91      31    1  -1.112800  1.351521e+01  2.333659e+01  1.106224e+01  # Ow water
     92      31    2   0.556400  1.366252e+01  2.427944e+01  1.113691e+01  # Hw water
     93      31    2   0.556400  1.278260e+01  2.316065e+01  1.165261e+01  # Hw water
     94      32    1  -1.112800  2.741933e+01  2.515325e+01  2.000981e+01  # Ow water
     95      32    2   0.556400  2.709635e+01  2.484546e+01  2.085667e+01  # Hw water
     96      32    2   0.556400  2.824935e+01  2.558499e+01  2.021203e+01  # Hw water
     97      33    1  -1.112800  1.432316e+01  5.763348e+00  2.879719e+01  # Ow water
     98      33    2   0.556400  1.422795e+01  4.816912e+00  2.869032e+01  # Hw water
     99      33    2   0.556400  1.525163e+01  5.890653e+00  2.899208e+01  # Hw water
    100      34    1  -1.112800  3.070976e+01  2.800081e+01  1.885758e+00  # Ow water
    101      34    2   0.556400  3.032034e+01  2.721808e+01  1.495988e+00  # Hw water
    102      34    2   0.556400  3.161014e+01  2.800807e+01  1.560969e+00  # Hw water
    103      35    1  -1.112800  2.993771e+01  2.168763e+01  2.009604e+01  # Ow water
    104      35    2   0.556400  2.960246e+01  2.111840e+01  2.078872e+01  # Hw water
    105      35    2   0.556400  3.086958e+01  2.147584e+01  2.004137e+01  # Hw water
    106      36    1  -1.112800  1.830596e+01  2.738540e+01  4.430074e+00  # Ow water
    107      36    2   0.556400  1.844178e+01  2.701502e+01  3.557949e+00  # Hw water
    108      36    2   0.556400  1.820234e+01  2.662392e+01  5.000726e+00  # Hw water
    109      37    1  -1.112800  1.555105e+01  2.478574e+01  3.024612e+01  # Ow water
    110      37    2   0.556400  1.521730e+01  2.567925e+01  3.016558e+01  # Hw water
    111      37    2   0.556400  1.645713e+01  2.483970e+01  2.994227e+01  # Hw water
    112      38    1  -1.112800  9.749620e+00  2.447223e+01  6.910407e+00  # Ow water
    113      38    2   0.556400  1.015154e+01  2.431533e+01  7.764849e+00  # Hw water
    114      38    2   0.556400  8.840129e+00  2.419399e+01  7.018275e+00  # Hw water
    115      39    1  -1.112800  2.617831e+01  2.613444e+01  3.173590e+01  # Ow water
    116      39    2   0.556400  2.609026e+01  2.651534e+01  3.086218e+01  # Hw water
    117      39    2   0.556400  2.702398e+01  2.568638e+01  3.171826e+01  # Hw water
    118      40    1  -1.112800  3.140748e+01  1.822725e+01  1.066368e+01  # Ow water
    119      40    2   0.556400  3.173603e+01  1.863881e+01  1.146300e+01  # Hw water
    120      40    2   0.556400  3.046542e+01  1.839634e+01  1.067646e+01  # Hw water
    121      41    1  -1.112800  3.108131e+01  2.266077e+00  5.471897e+00  # Ow water
    122      41    2   0.556400  3.064750e+01  2.942280e+00  5.992273e+00  # Hw water
    123      41    2   0.556400  3.051304e+01  1.500016e+00  5.552174e+00  # Hw water
    124      42    1  -1.112800  1.423590e+01  1.391646e+01  2.222400e+01  # Ow water
    125      42    2   0.556400  1.391148e+01  1.408532e+01  2.133943e+01  # Hw water
    126      42    2   0.556400  1.426895e+01  1.477965e+01  2.263636e+01  # Hw water
    127      43    1  -1.112800  4.343588e+00  3.093682e+01  2.665329e+01  # Ow water
    128      43    2   0.556400  3.901669e+00  3.029909e+01  2.609272e+01  # Hw water
    129      43    2   0.556400  3.778238e+00  3.170888e+01  2.663043e+01  # Hw water
    130      44    1  -1.112800  1.549609e+01  2.849245e+01  9.015206e+00  # Ow water
    131      44    2   0.556400  1.516727e+01  2.904786e+01  9.722051e+00  # Hw water
    132      44    2   0.556400  1.508007e+01  2.883779e+01  8.225334e+00  # Hw water
    133      45    1  -1.112800  4.852473e+00  3.171321e+01  1.428431e+01  # Ow water
    134      45    2   0.556400  4.139147e+00  3.173610e+01  1.364644e+01  # Hw water
    135      45    2   0.556400  5.645600e+00  3.163218e+01  1.375458e+01  # Hw water
    136      46    1  -1.112800  2.605789e+00  2.627097e+00  1.579794e+01  # Ow water
    137      46    2   0.556400  2.121619e+00  1.906283e+00  1.539515e+01  # Hw water
    138      46    2   0.556400  3.339812e+00  2.203890e+00  1.624328e+01  # Hw water
    139      47    1  -1.112800  1.594280e+01  1.844346e+01  2.030818e+01  # Ow water
    140      47    2   0.556400  1.548502e+01  1.915471e+01  2.075626e+01  # Hw water
    141      47    2   0.556400  1.604430e+01  1.875287e+01  1.940808e+01  # Hw water
    142      48    1  -1.112800  1.019281e+01  5.896540e+00  3.065565e+01  # Ow water
    143      48    2   0.556400  1.042433e+01  5.117491e+00  3.014998e+01  # Hw water
    144      48    2   0.556400  1.003944e+01  5.570274e+00  3.154236e+01  # Hw water
    145      49    1  -1.112800  3.762505e+00  2.500280e+01  2.980660e+01  # Ow water
    146      49    2   0.556400  3.761765e+00  2.405594e+01  2.994693e+01  # Hw water
    147      49    2   0.556400  3.600240e+00  2.510657e+01  2.886898e+01  # Hw water
    148      50    1  -1.112800  4.711470e+00  3.171256e+01  1.702232e+01  # Ow water
    149      50    2   0.556400  3.765463e+00  3.160930e+01  1.691918e+01  # Hw water
    150      50    2   0.556400  4.848604e+00  3.173496e+01  1.796938e+01  # Hw water
    151      51    1  -1.112800  2.706015e+01  2.974370e+01  1.244346e+01  # Ow water
    152      51    2   0.556400  2.629837e+01  2.923082e+01  1.217350e+01  # Hw water
    153      51    2   0.556400  2.694753e+01  2.986246e+01  1.338656e+01  # Hw water
    154      52    1  -1.112800  1.111430e+01  8.537301e+00  7.157496e+00  # Ow water
    155      52    2   0.556400  1.029694e+01  9.035456e+00  7.159339e+00  # Hw water
    156      52    2   0.556400  1.100357e+01  7.897077e+00  6.454589e+00  # Hw water
    157      53    1  -1.112800  1.422460e+01  1.708429e+01  2.846666e+01  # Ow water
    158      53    2   0.556400  1.408488e+01  1.735568e+01  2.937388e+01  # Hw water
    159      53    2   0.556400  1.488852e+01  1.768874e+01  2.813487e+01  # Hw water
    160      54    1  -1.112800  4.251601e+00  1.874797e+01  2.109341e+01  # Ow water
    161      54    2   0.556400  4.354727e+00  1.960081e+01  2.151561e+01  # Hw water
    162      54    2   0.556400  4.959460e+00  1.871149e+01  2.045011e+01  # Hw water
    163      55    1  -1.112800  2.118382e+01  6.249723e+00  2.545959e+01  # Ow water
    164      55    2   0.556400  2.167586e+01  6.508563e+00  2.468041e+01  # Hw water
    165      55    2   0.556400  2.026780e+01  6.269558e+00  2.518255e+01  # Hw water
    166      56    1  -1.112800  1.843489e+01  1.029906e+01  1.951658e+01  # Ow water
    167      56    2   0.556400  1.813743e+01  1.089311e+01  2.020568e+01  # Hw water
    168      56    2   0.556400  1.812847e+01  1.070156e+01  1.870397e+01  # Hw water
    169      57    1  -1.112800  1.736034e+01  2.567465e+01  1.267196e+01  # Ow water
    170      57    2   0.556400  1.692760e+01  2.608354e+01  1.342147e+01  # Hw water
    171      57    2   0.556400  1.803376e+01  2.511547e+01  1.305933e+01  # Hw water
    172      58    1  -1.112800  2.321584e+00  2.908121e+01  1.006906e+01  # Ow water
    173      58    2   0.556400  1.500277e+00  2.926510e+01  9.613138e+00  # Hw water
    174      58    2   0.556400  2.962972e+00  2.896057e+01  9.368851e+00  # Hw water
    175      59    1  -1.112800  2.892787e+01  2.003008e+01  1.833514e+01  # Ow water
    176      59    2   0.556400  2.845855e+01  1.968117e+01  1.909292e+01  # Hw water
    177      59    2   0.556400  2.944918e+01  1.929358e+01  1.801574e+01  # Hw water
    178      60    1  -1.112800  7.566959e+00  5.989372e+00  3.142450e+01  # Ow water
    179      60    2   0.556400  7.154864e+00  5.181814e+00  3.173151e+01  # Hw water
    180      60    2   0.556400  6.955374e+00  6.681480e+00  3.167585e+01  # Hw water
    181      61    1  -1.112800  1.505374e+00  3.991371e+00  1.264473e+01  # Ow water
    182      61    2   0.556400  1.517763e+00  4.723852e+00  1.326080e+01  # Hw water
    183      61    2   0.556400  1.523061e+00  3.211221e+00  1.319906e+01  # Hw water
    184      62    1  -1.112800  2.107706e+01  2.563412e+01  4.389455e+00  # Ow water
    185      62    2   0.556400  2.020036e+01  2.533771e+01  4.144978e+00  # Hw water
    186      62    2   0.556400  2.094475e+01  2.651823e+01  4.731622e+00  # Hw water
    187      63    1  -1.112800  1.793857e+01  3.173048e+01  2.835324e+01  # Ow water
    188      63    2   0.556400  1.867104e+01  3.173589e+01  2.896943e+01  # Hw water
    189      63    2   0.556400  1.715839e+01  3.173559e+01  2.890778e+01  # Hw water
    190      64    1  -1.112800  9.584137e+00  2.627979e+01  1.725022e+01  # Ow water
    191      64    2   0.556400  8.879661e+00  2.670231e+01  1.774157e+01  # Hw water
    192      64    2   0.556400  9.137751e+00  2.564999e+01  1.668425e+01  # Hw water
    193      65    1  -1.112800  1.556181e+00  2.096191e+00  5.547217e+00  # Ow water
    194      65    2   0.556400  1.601469e+00  1.519881e+00  4.784298e+00  # Hw water
    195      65    2   0.556400  1.500076e+00  1.500892e+00  6.294680e+00  # Hw water
    196      66    1  -1.112800  3.822244e+00  1.332293e+01  2.114544e+01  # Ow water
    197      66    2   0.556400  3.925877e+00  1.242882e+01  2.081976e+01  # Hw water
    198      66    2   0.556400  3.837013e+00  1.386810e+01  2.035880e+01  # Hw water
    199      67    1  -1.112800  4.850118e+00  1.161029e+01  2.588138e+01  # Ow water
    200      67    2   0.556400  4.654570e+00  1.238122e+01  2.534879e+01  # Hw water
    201      67    2   0.556400  4.973226e+00  1.090479e+01  2.524629e+01  # Hw water
    202      68    1  -1.112800  2.102917e+01  1.775980e+01  2.132391e+01  # Ow water
    203      68    2   0.556400  2.123205e+01  1.869161e+01  2.140629e+01  # Hw water
    204      68    2   0.556400  2.056189e+01  1.768859e+01  2.049157e+01  # Hw water
    205      69    1  -1.112800  3.171564e+01  2.528484e+00  2.703752e+01  # Ow water
    206      69    2   0.556400  3.173485e+01  1.581636e+00  2.717658e+01  # Hw water
    207      69    2   0.556400  3.084582e+01  2.796914e+00  2.733347e+01  # Hw water
    208      70    1  -1.112800  1.029604e+01  1.352171e+01  2.572305e+01  # Ow water
    209      70    2   0.556400  1.103044e+01  1.346505e+01  2.633435e+01  # Hw water
    210      70    2   0.556400  9.832327e+00  1.269085e+01  2.582735e+01  # Hw water
    211      71    1  -1.112800  8.517734e+00  4.043251e+00  2.065321e+01  # Ow water
    212      71    2   0.556400  7.898770e+00  4.661365e+00  2.104186e+01  # Hw water
    213      71    2   0.556400  8.912443e+00  4.524220e+00  1.992582e+01  # Hw water
    214      72    1  -1.112800  3.149830e+01  9.002954e+00  4.292572e+00  # Ow water
    215      72    2   0.556400  3.074287e+01  8.445203e+00  4.478210e+00  # Hw water
    216      72    2   0.556400  3.173610e+01  8.792222e+00  3.389646e+00  # Hw water
    217      73    1  -1.112800  3.758921e+00  9.812339e+00  3.049062e+01  # Ow water
    218      73    2   0.556400  4.326109e+00  9.580024e+00  3.122584e+01  # Hw water
    219      73    2   0.556400  3.672172e+00  9.001753e+00  2.998897e+01  # Hw water
    220      74    1  -1.112800  2.257520e+01  1.144380e+01  2.461700e+01  # Ow water
    221      74    2   0.556400  2.262240e+01  1.229413e+01  2.505398e+01  # Hw water
    222      74    2   0.556400  2.245960e+01  1.165603e+01  2.369081e+01  # Hw water
    223      75    1  -1.112800  3.877735e+00  2.975503e+01  2.344252e+01  # Ow water
    224      75    2   0.556400  4.729420e+00  3.007050e+01  2.374474e+01  # Hw water
    225      75    2   0.556400  3.938384e+00  2.880189e+01  2.350644e+01  # Hw water
    226      76    1  -1.112800  2.907634e+01  1.500012e+00  8.372515e+00  # Ow water
    227      76    2   0.556400  2.882723e+01  1.512344e+00  9.296648e+00  # Hw water
    228      76    2   0.556400  2.893048e+01  2.397248e+00  8.072647e+00  # Hw water
    229      77    1  -1.112800  2.635186e+01  2.561309e+01  2.703754e+01  # Ow water
    230      77    2   0.556400  2.567363e+01  2.625679e+01  2.683290e+01  # Hw water
    231      77    2   0.556400  2.715714e+01  2.612612e+01  2.710492e+01  # Hw water
    232      78    1  -1.112800  3.147818e+00  1.629482e+01  2.136084e+01  # Ow water
    233      78    2   0.556400  2.386495e+00  1.676462e+01  2.170128e+01  # Hw water
    234      78    2   0.556400  3.639784e+00  1.603796e+01  2.214072e+01  # Hw water
    235      79    1  -1.112800  1.984536e+01  1.725005e+01  1.429285e+01  # Ow water
    236      79    2   0.556400  2.058563e+01  1.672668e+01  1.459996e+01  # Hw water
    237      79    2   0.556400  2.015616e+01  1.765281e+01  1.348204e+01  # Hw water
    238      80    1  -1.112800  1.199957e+01  1.529749e+01  2.373974e+01  # Ow water
    239      80    2   0.556400  1.244724e+01  1.485590e+01  2.446141e+01  # Hw water
    240      80    2   0.556400  1.110363e+01  1.542144e+01  2.405305e+01  # Hw water
    241      81    1  -1.112800  2.863431e+01  5.783872e+00  1.509733e+01  # Ow water
    242      81    2   0.556400  2.930399e+01  5.101048e+00  1.513621e+01  # Hw water
    243      81    2   0.556400  2.851066e+01  5.945766e+00  1.416206e+01  # Hw water
    244      82    1  -1.112800  2.929503e+00  2.596009e+01  1.304138e+01  # Ow water
    245      82    2   0.556400  3.825177e+00  2.621660e+01  1.326093e+01  # Hw water
    246      82    2   0.556400  2.960273e+00  2.500503e+01  1.298534e+01  # Hw water
    247      83    1  -1.112800  1.116312e+01  1.406836e+01  1.901115e+01  # Ow water
    248      83    2   0.556400  1.183743e+01  1.446671e+01  1.846084e+01  # Hw water
    249      83    2   0.556400  1.037115e+01  1.409023e+01  1.847399e+01  # Hw water
    250      84    1  -1.112800  2.543512e+01  1.976676e+01  1.251946e+01  # Ow water
    251      84    2   0.556400  2.536235e+01  1.960822e+01  1.157830e+01  # Hw water
    252      84    2   0.556400  2.583941e+01  2.063180e+01  1.258656e+01  # Hw water
    253      85    1  -1.112800  1.585631e+00  5.552852e+00  1.747927e+01  # Ow water
    254      85    2   0.556400  1.500907e+00  4.882981e+00  1.680080e+01  # Hw water
    255      85    2   0.556400  1.500248e+00  5.072486e+00  1.830279e+01  # Hw water
    256      86    1  -1.112800  3.173762e+01  2.620135e+01  3.296536e+00  # Ow water
    257      86    2   0.556400  3.147861e+01  2.642874e+01  4.189528e+00  # Hw water
    258      86    2   0.556400  3.118065e+01  2.545744e+01  3.067164e+00  # Hw water
    259      87    1  -1.112800  2.437129e+01  2.643984e+01  3.619856e+00  # Ow water
    260      87    2   0.556400  2.365499e+01  2.687302e+01  4.084066e+00  # Hw water
    261      87    2   0.556400  2.409298e+01  2.552685e+01  3.547513e+00  # Hw water
    262      88    1  -1.112800  1.413894e+01  3.117949e+01  1.775744e+00  # Ow water
    263      88    2   0.556400  1.367801e+01  3.173614e+01  2.403367e+00  # Hw water
    264      88    2   0.556400  1.489235e+01  3.170157e+01  1.499997e+00  # Hw water
    265      89    1  -1.112800  1.322383e+01  3.124305e+01  1.734022e+01  # Ow water
    266      89    2   0.556400  1.276560e+01  3.052979e+01  1.689580e+01  # Hw water
    267      89    2   0.556400  1.365801e+01  3.172482e+01  1.663622e+01  # Hw water
    268      90    1  -1.112800  9.915853e+00  1.574604e+01  1.005490e+01  # Ow water
    269      90    2   0.556400  9.006339e+00  1.592068e+01  9.813010e+00  # Hw water
    270      90    2   0.556400  1.043204e+01  1.616551e+01  9.366560e+00  # Hw water
    271      91    1  -1.112800  3.349001e+00  5.828717e+00  1.982732e+01  # Ow water
    272      91    2   0.556400  4.030449e+00  5.168614e+00  1.995429e+01  # Hw water
    273      91    2   0.556400  3.823893e+00  6.615435e+00  1.955940e+01  # Hw water
    274      92    1  -1.112800  1.057999e+01  1.500265e+01  3.245469e+00  # Ow water
    275      92    2   0.556400  9.708109e+00  1.539497e+01  3.199226e+00  # Hw water
    276      92    2   0.556400  1.065548e+01  1.449002e+01  2.440645e+00  # Hw water
    277      93    1  -1.112800  1.590326e+01  4.838597e+00  6.794083e+00  # Ow water
    278      93    2   0.556400  1.661693e+01  4.277158e+00  7.096875e+00  # Hw water
    279      93    2   0.556400  1.572921e+01  4.544330e+00  5.900025e+00  # Hw water
    280      94    1  -1.112800  6.439005e+00  1.809661e+01  1.708494e+01  # Ow water
    281      94    2   0.556400  5.759316e+00  1.847007e+01  1.652388e+01  # Hw water
    282      94    2   0.556400  5.975983e+00  1.746413e+01  1.763430e+01  # Hw water
    283      95    1  -1.112800  8.708232e+00  2.309245e+01  2.196098e+01  # Ow water
    284      95    2   0.556400  9.137270e+00  2.310062e+01  2.281660e+01  # Hw water
    285      95    2   0.556400  7.773115e+00  2.313462e+01  2.216100e+01  # Hw water
    286      96    1  -1.112800  1.972891e+01  1.179065e+01  3.111864e+01  # Ow water
    287      96    2   0.556400  1.901145e+01  1.209976e+01  3.167176e+01  # Hw water
    288      96    2   0.556400  2.040720e+01  1.151697e+01  3.173609e+01  # Hw water
    289      97    1  -1.112800  1.123705e+01  1.864644e+01  8.137458e+00  # Ow water
    290      97    2   0.556400  1.155267e+01  1.928259e+01  7.495638e+00  # Hw water
    291      97    2   0.556400  1.087825e+01  1.793212e+01  7.610926e+00  # Hw water
    292      98    1  -1.112800  1.678766e+01  1.334206e+01  2.701963e+01  # Ow water
    293      98    2   0.556400  1.742608e+01  1.278247e+01  2.746180e+01  # Hw water
    294      98    2   0.556400  1.658241e+01  1.287737e+01  2.620836e+01  # Hw water
    295      99    1  -1.112800  4.304889e+00  2.130752e+01  1.836203e+01  # Ow water
    296      99    2   0.556400  4.279821e+00  2.226084e+01  1.827967e+01  # Hw water
    297      99    2   0.556400  4.051433e+00  2.113828e+01  1.926942e+01  # Hw water
    298     100    1  -1.112800  1.180929e+01  1.760843e+01  1.500030e+00  # Ow water
    299     100    2   0.556400  1.106215e+01  1.701370e+01  1.565626e+00  # Hw water
    300     100    2   0.556400  1.157604e+01  1.834940e+01  2.059293e+00  # Hw water
    301     101    1  -1.112800  4.200482e+00  7.453779e+00  1.378963e+01  # Ow water
    302     101    2   0.556400  3.696933e+00  6.954412e+00  1.443251e+01  # Hw water
    303     101    2   0.556400  3.982824e+00  8.367911e+00  1.397188e+01  # Hw water
    304     102    1  -1.112800  4.297078e+00  2.561720e+01  1.930039e+01  # Ow water
    305     102    2   0.556400  4.094172e+00  2.496392e+01  1.996992e+01  # Hw water
    306     102    2   0.556400  4.134575e+00  2.645787e+01  1.972829e+01  # Hw water
    307     103    1  -1.112800  7.143651e+00  1.218261e+01  2.784726e+01  # Ow water
    308     103    2   0.556400  6.972995e+00  1.189647e+01  2.874461e+01  # Hw water
    309     103    2   0.556400  7.934752e+00  1.170877e+01  2.759062e+01  # Hw water
    310     104    1  -1.112800  5.755302e+00  8.231802e+00  1.143005e+01  # Ow water
    311     104    2   0.556400  6.098110e+00  8.153956e+00  1.232036e+01  # Hw water
    312     104    2   0.556400  6.337712e+00  8.859805e+00  1.100268e+01  # Hw water
    313     105    1  -1.112800  3.119441e+01  3.173611e+01  2.215631e+01  # Ow water
    314     105    2   0.556400  3.173613e+01  3.140327e+01  2.144078e+01  # Hw water
    315     105    2   0.556400  3.132320e+01  3.110801e+01  2.286704e+01  # Hw water
    316     106    1  -1.112800  5.711261e+00  2.692873e+00  9.250420e+00  # Ow water
    317     106    2   0.556400  5.091303e+00  3.419285e+00  9.185567e+00  # Hw water
    318     106    2   0.556400  6.562754e+00  3.113884e+00  9.368478e+00  # Hw water
    319     107    1  -1.112800  5.819090e+00  1.198991e+01  9.485465e+00  # Ow water
    320     107    2   0.556400  6.061313e+00  1.253774e+01  8.738849e+00  # Hw water
    321     107    2   0.556400  6.015085e+00  1.109703e+01  9.201579e+00  # Hw water
    322     108    1  -1.112800  9.817222e+00  3.173611e+01  1.911655e+01  # Ow water
    323     108    2   0.556400  1.010565e+01  3.114272e+01  1.981004e+01  # Hw water
    324     108    2   0.556400  9.764957e+00  3.118512e+01  1.833558e+01  # Hw water
    325     109    1  -1.112800  1.800324e+01  9.787271e+00  1.462104e+01  # Ow water
    326     109    2   0.556400  1.765679e+01  1.066367e+01  1.445334e+01  # Hw water
    327     109    2   0.556400  1.726405e+01  9.201607e+00  1.445725e+01  # Hw water
    328     110    1  -1.112800  1.715929e+00  1.887633e+01  2.704739e+00  # Ow water
    329     110    2   0.556400  1.772971e+00  1.915586e+01  1.791044e+00  # Hw water
    330     110    2   0.556400  2.622043e+00  1.870227e+01  2.959475e+00  # Hw water
    331     111    1  -1.112800  3.172210e+01  2.824144e+01  2.399748e+01  # Ow water
    332     111    2   0.556400  3.146984e+01  2.893644e+01  2.460541e+01  # Hw water
    333     111    2   0.556400  3.173610e+01  2.744791e+01  2.453260e+01  # Hw water
    334     112    1  -1.112800  3.104729e+01  8.194383e+00  2.111951e+01  # Ow water
    335     112    2   0.556400  3.059882e+01  7.718473e+00  2.042050e+01  # Hw water
    336     112    2   0.556400  3.173610e+01  8.685604e+00  2.067177e+01  # Hw water
    337     113    1  -1.112800  3.077026e+01  2.921515e+01  4.690723e+00  # Ow water
    338     113    2   0.556400  3.164780e+01  2.891253e+01  4.457119e+00  # Hw water
    339     113    2   0.556400  3.018219e+01  2.856296e+01  4.309873e+00  # Hw water
    340     114    1  -1.112800  1.069139e+01  1.829146e+01  1.305010e+01  # Ow water
    341     114    2   0.556400  1.085649e+01  1.774929e+01  1.382147e+01  # Hw water
    342     114    2   0.556400  1.144727e+01  1.887673e+01  1.300187e+01  # Hw water
    343     115    1  -1.112800  6.078086e+00  9.013186e+00  2.776580e+01  # Ow water
    344     115    2   0.556400  6.731021e+00  9.536819e+00  2.730136e+01  # Hw water
    345     115    2   0.556400  6.138191e+00  8.145343e+00  2.736647e+01  # Hw water
    346     116    1  -1.112800  2.890477e+01  3.052172e+00  1.687233e+01  # Ow water