LAMMPS (22 Aug 2018)
####################################################
# Transport properties of NaCl in water
#  at 298 K and 1 atm.
#################### SETTING UP ####################
units real
dimension 3
newton on
boundary p p p
atom_style full

#################### VARIABLES ####################
variable Temp equal 298       # Temperature in K
variable Pres equal 1.0       # Pressure in atm.

variable RandomSeed equal 200 # The random seed for velocity
variable tstep equal 2.0      # 2fs
variable Ninptpre equal 10000 # Pre-initialize the NPT ensemble (very small timesteps)
variable Ninpt equal 5000000    # Initialize the NPT ensemble
variable Npnpt equal 5000000  # Production in the NPT ensemble (volume)
variable Ninvtpre equal 10000 # Pre-initialize the NVT ensemble (very small timesteps)
variable Ninvt equal 100000   # Initialize the NVT ensemble
variable Npnvt equal 100000   # Production in the NVT ensemble (energy)
variable Nrun equal 100000000   # production in the NVE ensemble
variable Nf equal 10000       # Nfreq (fix ave/time and thermo)
variable Ne equal  10         # Nevery (fix ave/time)
variable Nr equal ${Nf}/${Ne} # Nrepeat (fix ave/time)
variable Nr equal 10000/${Ne} 
variable Nr equal 10000/10 
variable NBR equal ${Npnpt}/50 # Block averaging for density (NPT)
variable NBR equal 5000000/50 
variable Nd equal ${Npnvt}/10 # Frequency of outputting positions of atoms in the NVT ensemble
variable Nd equal 100000/10 

variable nb equal 10          # Number of blocks (fix ordern)
variable nbe equal 20         # Number of block elements (fix ordern)
variable Nvisc equal 5        # Nevery for viscosity (fix ordern: sample data at (Nvisc*2))
variable Ncond equal 5        # Nevery for Tconductivity (fix ordern: sample data at (Ncond*2))
variable Ndiff equal 1000     # Nevery for diffusivity (fix ordern: sample data at (Ndiff))
variable Nwrit equal 100000   # Nwrite for transport properties (fix ordern: write every (Nwrit))

variable Nrdfe equal 100      # Nevery for RDF (fix ave/time)
variable Nrdfw equal 1000     # Nwrite for RDF (compute rdf/ext: write every (Nrdfw*Nrdfe))
variable binnum equal 2000    # Number of bins for RDF

#################### ATOM DEFINITION and FORCEFIELD ####################
read_data ./data.lmp                     # read the positions
  orthogonal box = (0 0 0) to (32.8974 32.8974 32.8974)
  4 by 4 by 8 MPI processor grid
  reading atoms ...
  3072 atoms
  scanning bonds ...
  2 = max bonds/atom
  scanning angles ...
  1 = max angles/atom
  reading bonds ...
  2000 bonds
  reading angles ...
  1000 angles
  2 = max # of 1-2 neighbors
  1 = max # of 1-3 neighbors
  1 = max # of 1-4 neighbors
  2 = max # of special neighbors
include ./forcefield.data                  # read the force field
#--------INTERMOLECULAR POTENTIAL -------------------#
# ---------------Developed for NaCl in water (tip4p/2005) system-----

mass 1 15.9994 # Ow
mass 2 1.00794 # Hw
mass 3 22.9897 # Na
mass 4 35.4527 # Cl

pair_style lj/cut/tip4p/long 1 2 1 1 0.1546 10.0

kspace_style pppm/tip4p 1.0e-5
pair_modify tail yes # ATC i

#-----------------Combinations----------------------------
# atomtype atomtype epsilon sigma

pair_coeff 1 1 0.1851 3.1589     # Ow-Ow
pair_coeff 1 2 0.0000 0.0000     # Ow-Hw
pair_coeff 1 3 0.1895 2.38725     # Ow-Na
pair_coeff 1 4 0.0148 4.07631     # Ow-Cl

pair_coeff 2 2 0.0000 0.0000     # Hw-Hw
pair_coeff 2 3 0.0000 0.0000     # Hw-Na
pair_coeff 2 4 0.0000 0.0000     # Hw-Cl

pair_coeff 3 3 0.3517 2.21737     # Na-Na
pair_coeff 3 4 0.3437 2.58012     # Na-Cl

pair_coeff 4 4 0.01837 4.69906     # Cl-Cl

bond_style  harmonic
bond_coeff 1 1000 0.9572          # Ow-Hw

angle_style harmonic
angle_coeff 1 100 104.52          # H-O-H

#dihedral_style none
#improper_style none

set type 1 charge -1.1128        # O
  1000 settings made for charge
set type 2 charge +0.5564        # OH
  2000 settings made for charge
set type 3 charge +0.7500        # Na
  36 settings made for charge
set type 4 charge -0.7500        # Cl
  36 settings made for charge


#################### INITIALIZATION ####################
# groups for the central atoms of water (O)
group wat type 1      # The Oxygen of WATER molecules
1000 atoms in group wat
group Na type 3
36 atoms in group Na
group Cl type 4
36 atoms in group Cl

# neigbor lists
neighbor 2.0 bin
neigh_modify every 1 delay 0 check yes

# velocity-Verlet integrator
run_style verlet

# minimizing the system using the conjugate gradient method
min_style cg
min_modify dmax 0.05
minimize 1.0e-6 1.0e-6 1000 10000
PPPM initialization ...
  extracting TIP4P info from pair style
  using 12-bit tables for long-range coulomb (../kspace.cpp:321)
  G vector (1/distance) = 0.308492
  grid = 30 30 30
  stencil order = 5
  estimated absolute RMS force accuracy = 0.00396779
  estimated relative force accuracy = 1.19489e-05
  using double precision FFTs
  3d grid and FFT values/proc = 2475 256
Neighbor list info ...
  update every 1 steps, delay 0 steps, check yes
  max neighbors/atom: 2000, page size: 100000
  master list distance cutoff = 12.3092
  ghost atom cutoff = 12.3092
  binsize = 6.1546, bins = 6 6 6
  1 neighbor lists, perpetual/occasional/extra = 1 0 0
  (1) pair lj/cut/tip4p/long, perpetual
      attributes: half, newton on
      pair build: half/bin/newton
      stencil: half/bin/3d/newton
      bin: standard
Per MPI rank memory allocation (min/avg/max) = 8.191 | 8.258 | 8.457 Mbytes
Step Temp E_pair E_mol TotEng Press 
       0            0   -623.99644 3.2833764e-05   -623.99641    16855.974 
    1000            0   -18283.155    376.61467    -17906.54    -4511.467 
Loop time of 1.40897 on 128 procs for 1000 steps with 3072 atoms

99.1% CPU use with 128 MPI tasks x no OpenMP threads

Minimization stats:
  Stopping criterion = max iterations
  Energy initial, next-to-last, final = 
        -623.996407629     -17906.4343711     -17906.5404254
  Force two-norm initial, final = 1275.57 13.7842
  Force max component initial, final = 165.194 4.71147
  Final line search alpha, max atom move = 0.0018373 0.00865637
  Iterations, force evaluations = 1000 1800

MPI task timing breakdown:
Section |  min time  |  avg time  |  max time  |%varavg| %total
---------------------------------------------------------------
Pair    | 0.18282    | 0.35944    | 0.53875    |  12.1 | 25.51
Bond    | 0.0010614  | 0.0016321  | 0.0020772  |   0.5 |  0.12
Kspace  | 0.59103    | 0.78122    | 0.96422    |   8.2 | 55.45
Neigh   | 0.006933   | 0.0073923  | 0.0075656  |   0.1 |  0.52
Comm    | 0.15636    | 0.17771    | 0.20581    |   2.5 | 12.61
Output  | 9.7642e-05 | 0.00010039 | 0.00010303 |   0.0 |  0.01
Modify  | 0          | 0          | 0          |   0.0 |  0.00
Other   |            | 0.08148    |            |       |  5.78

Nlocal:    24 ave 33 max 10 min
Histogram: 2 1 5 11 12 20 40 20 13 4
Nghost:    2650.94 ave 2708 max 2617 min
Histogram: 28 31 8 13 5 9 2 15 12 5
Neighs:    8119.74 ave 12309 max 2860 min
Histogram: 3 2 6 17 13 36 23 17 8 3

Total # of neighbors = 1039327
Ave neighs/atom = 338.323
Ave special neighs/atom = 1.95312
Neighbor list builds = 22
Dangerous builds = 0
reset_timestep 0

# initializing velocities
velocity all create ${Temp} ${RandomSeed}
velocity all create 298 ${RandomSeed}
velocity all create 298 200

# rate of writing thermal properties to the log file
thermo ${Nf}
thermo 10000

#################### 1) Initialize the NPT ensemble ####################
# applying the shake algorithm for rigid molecules and the NPT solver
fix constrain all shake 1.0e-6 1000 0 b 1 a 1
  0 = # of size 2 clusters
  0 = # of size 3 clusters
  0 = # of size 4 clusters
  1000 = # of frozen angles
fix integrate all npt temp ${Temp} ${Temp} 10.0 iso ${Pres} ${Pres} 100.0
fix integrate all npt temp 298 ${Temp} 10.0 iso ${Pres} ${Pres} 100.0
fix integrate all npt temp 298 298 10.0 iso ${Pres} ${Pres} 100.0
fix integrate all npt temp 298 298 10.0 iso 1 ${Pres} 100.0
fix integrate all npt temp 298 298 10.0 iso 1 1 100.0


# Initializing the whole system with very small timesteps in the NPT ensemble
timestep 0.001
run ${Ninptpre}
run 10000
PPPM initialization ...
  extracting TIP4P info from pair style
  using 12-bit tables for long-range coulomb (../kspace.cpp:321)
  G vector (1/distance) = 0.308492
  grid = 30 30 30
  stencil order = 5
  estimated absolute RMS force accuracy = 0.00396779
  estimated relative force accuracy = 1.19489e-05
  using double precision FFTs
  3d grid and FFT values/proc = 2475 256
Per MPI rank memory allocation (min/avg/max) = 7.941 | 8.108 | 8.208 Mbytes
Step Temp E_pair E_mol TotEng Press Volume 
       0    441.89184   -18283.155            0   -15555.243   -1025826.3    35602.788 
   10000    169.81955   -16667.887            0   -15619.547    1837.3401    35484.088 
Loop time of 8.80022 on 128 procs for 10000 steps with 3072 atoms

Performance: 0.098 ns/day, 244.451 hours/ns, 1136.335 timesteps/s
99.4% CPU use with 128 MPI tasks x no OpenMP threads

MPI task timing breakdown:
Section |  min time  |  avg time  |  max time  |%varavg| %total
---------------------------------------------------------------
Pair    | 0.63865    | 2.3575     | 3.5409     |  36.3 | 26.79
Bond    | 0.00095072 | 0.0011399  | 0.0018411  |   0.5 |  0.01
Kspace  | 3.0132     | 4.2627     | 5.9849     |  27.0 | 48.44
Neigh   | 0          | 0          | 0          |   0.0 |  0.00
Comm    | 0.8217     | 0.95156    | 1.0863     |   6.5 | 10.81
Output  | 8.7634e-05 | 9.0276e-05 | 9.3936e-05 |   0.0 |  0.00
Modify  | 0.90941    | 1.0964     | 1.1757     |   6.1 | 12.46
Other   |            | 0.1308     |            |       |  1.49

Nlocal:    24 ave 33 max 9 min
Histogram: 1 2 5 8 8 28 22 37 12 5
Nghost:    2650.75 ave 2707 max 2619 min
Histogram: 35 26 4 11 6 12 3 13 13 5
Neighs:    8120.13 ave 12363 max 2446 min
Histogram: 2 1 5 17 12 37 23 20 8 3

Total # of neighbors = 1039377
Ave neighs/atom = 338.339
Ave special neighs/atom = 1.95312
Neighbor list builds = 0
Dangerous builds = 0
timestep 0.01
run ${Ninptpre}
run 10000
PPPM initialization ...
  extracting TIP4P info from pair style
  using 12-bit tables for long-range coulomb (../kspace.cpp:321)
  G vector (1/distance) = 0.308573
  grid = 30 30 30
  stencil order = 5
  estimated absolute RMS force accuracy = 0.00395463
  estimated relative force accuracy = 1.19093e-05
  using double precision FFTs
  3d grid and FFT values/proc = 2475 256
Per MPI rank memory allocation (min/avg/max) = 7.941 | 8.108 | 8.208 Mbytes
Step Temp E_pair E_mol TotEng Press Volume 
   10000    169.81955   -16667.887            0   -15619.547    -17513.64    35484.088 
   20000    299.99245   -15524.773            0   -13672.843   -787.06823    35996.082 
Loop time of 8.94787 on 128 procs for 10000 steps with 3072 atoms

Performance: 0.966 ns/day, 24.855 hours/ns, 1117.584 timesteps/s
99.4% CPU use with 128 MPI tasks x no OpenMP threads

MPI task timing breakdown:
Section |  min time  |  avg time  |  max time  |%varavg| %total
---------------------------------------------------------------
Pair    | 0.68041    | 2.325      | 3.4465     |  35.0 | 25.98
Bond    | 0.00094203 | 0.0011388  | 0.0018831  |   0.5 |  0.01
Kspace  | 3.2299     | 4.42       | 6.0694     |  25.4 | 49.40
Neigh   | 0.0011545  | 0.0011932  | 0.0012211  |   0.0 |  0.01
Comm    | 0.80831    | 0.94754    | 1.0799     |   6.6 | 10.59
Output  | 8.6772e-05 | 8.9769e-05 | 9.2864e-05 |   0.0 |  0.00
Modify  | 0.91114    | 1.0992     | 1.1779     |   6.1 | 12.28
Other   |            | 0.1537     |            |       |  1.72

Nlocal:    24 ave 32 max 10 min
Histogram: 2 2 4 5 13 26 24 22 17 13
Nghost:    2619.98 ave 2684 max 2571 min
Histogram: 4 17 25 28 14 6 6 10 9 9
Neighs:    8009.8 ave 11659 max 3001 min
Histogram: 2 4 3 16 17 26 23 17 12 8

Total # of neighbors = 1025254
Ave neighs/atom = 333.742
Ave special neighs/atom = 1.95312
Neighbor list builds = 4
Dangerous builds = 0
timestep 0.1
run ${Ninptpre}
run 10000
PPPM initialization ...
  extracting TIP4P info from pair style
  using 12-bit tables for long-range coulomb (../kspace.cpp:321)
  G vector (1/distance) = 0.308226
  grid = 30 30 30
  stencil order = 5
  estimated absolute RMS force accuracy = 0.0040114
  estimated relative force accuracy = 1.20802e-05
  using double precision FFTs
  3d grid and FFT values/proc = 2475 256
Per MPI rank memory allocation (min/avg/max) = 7.941 | 8.112 | 8.208 Mbytes
Step Temp E_pair E_mol TotEng Press Volume 
   20000    299.99245   -15524.772            0   -13672.841   -11548.765    35996.082 
   30000     292.2317   -15579.516            0   -13775.495   -566.38001    32096.898 
Loop time of 9.26232 on 128 procs for 10000 steps with 3072 atoms

Performance: 9.328 ns/day, 2.573 hours/ns, 1079.643 timesteps/s
99.5% CPU use with 128 MPI tasks x no OpenMP threads

MPI task timing breakdown:
Section |  min time  |  avg time  |  max time  |%varavg| %total
---------------------------------------------------------------
Pair    | 1.5702     | 2.585      | 3.5704     |  25.0 | 27.91
Bond    | 0.00098632 | 0.001142   | 0.0018718  |   0.4 |  0.01
Kspace  | 3.3297     | 4.3152     | 5.3402     |  19.5 | 46.59
Neigh   | 0.015404   | 0.015671   | 0.016021   |   0.1 |  0.17
Comm    | 0.92908    | 1.0462     | 1.1588     |   5.1 | 11.30
Output  | 8.1532e-05 | 8.3239e-05 | 8.6291e-05 |   0.0 |  0.00
Modify  | 0.96176    | 1.1566     | 1.2414     |   6.2 | 12.49
Other   |            | 0.1425     |            |       |  1.54

Nlocal:    24 ave 33 max 14 min
Histogram: 3 0 14 14 26 28 20 15 5 3
Nghost:    2856.9 ave 2891 max 2820 min
Histogram: 2 5 11 14 28 26 19 12 5 6
Neighs:    8929.69 ave 12973 max 5288 min
Histogram: 3 11 12 25 20 22 12 17 5 1

Total # of neighbors = 1143000
Ave neighs/atom = 372.07
Ave special neighs/atom = 1.95312
Neighbor list builds = 47
Dangerous builds = 0
timestep 0.2
run ${Ninptpre}
run 10000
PPPM initialization ...
  extracting TIP4P info from pair style
  using 12-bit tables for long-range coulomb (../kspace.cpp:321)
  G vector (1/distance) = 0.31099
  grid = 30 30 30
  stencil order = 5
  estimated absolute RMS force accuracy = 0.0035794
  estimated relative force accuracy = 1.07793e-05
  using double precision FFTs
  3d grid and FFT values/proc = 2475 256
Per MPI rank memory allocation (min/avg/max) = 7.95 | 8.178 | 8.218 Mbytes
Step Temp E_pair E_mol TotEng Press Volume 
   30000     292.2317   -15579.519            0   -13775.498   -8219.9922    32096.898 
   40000    299.00408     -15758.2            0    -13912.37     809.8529    31448.458 
Loop time of 9.50277 on 128 procs for 10000 steps with 3072 atoms

Performance: 18.184 ns/day, 1.320 hours/ns, 1052.324 timesteps/s
99.4% CPU use with 128 MPI tasks x no OpenMP threads

MPI task timing breakdown:
Section |  min time  |  avg time  |  max time  |%varavg| %total
---------------------------------------------------------------
Pair    | 1.8868     | 2.7026     | 3.6182     |  21.7 | 28.44
Bond    | 0.00095239 | 0.0011624  | 0.0018589  |   0.5 |  0.01
Kspace  | 3.4472     | 4.3451     | 5.1247     |  16.9 | 45.72
Neigh   | 0.030193   | 0.031596   | 0.032569   |   0.5 |  0.33
Comm    | 0.96683    | 1.0851     | 1.2179     |   5.3 | 11.42
Output  | 8.4618e-05 | 8.7523e-05 | 9.121e-05  |   0.0 |  0.00
Modify  | 0.98027    | 1.1853     | 1.2738     |   6.3 | 12.47
Other   |            | 0.1519     |            |       |  1.60

Nlocal:    24 ave 31 max 14 min
Histogram: 1 4 3 8 22 38 13 19 12 8
Nghost:    2908.45 ave 2946 max 2871 min
Histogram: 5 6 16 17 22 17 19 8 12 6
Neighs:    9075.41 ave 12715 max 5486 min
Histogram: 5 1 13 22 26 24 14 16 3 4

Total # of neighbors = 1161652
Ave neighs/atom = 378.142
Ave special neighs/atom = 1.95312
Neighbor list builds = 97
Dangerous builds = 0
timestep 0.5
run ${Ninptpre}
run 10000
PPPM initialization ...
  extracting TIP4P info from pair style
  using 12-bit tables for long-range coulomb (../kspace.cpp:321)
  G vector (1/distance) = 0.311479
  grid = 30 30 30
  stencil order = 5
  estimated absolute RMS force accuracy = 0.00350765
  estimated relative force accuracy = 1.05632e-05
  using double precision FFTs
  3d grid and FFT values/proc = 2475 256
Per MPI rank memory allocation (min/avg/max) = 7.955 | 8.198 | 8.218 Mbytes
Step Temp E_pair E_mol TotEng Press Volume 
   40000    299.00408     -15758.2            0    -13912.37    2032.6204    31448.458 
   50000    296.17323    -15738.24            0   -13909.887    46.159044     31291.14 
Loop time of 10.4622 on 128 procs for 10000 steps with 3072 atoms

Performance: 41.292 ns/day, 0.581 hours/ns, 955.822 timesteps/s
99.4% CPU use with 128 MPI tasks x no OpenMP threads

MPI task timing breakdown:
Section |  min time  |  avg time  |  max time  |%varavg| %total
---------------------------------------------------------------
Pair    | 1.9791     | 2.7743     | 3.4664     |  17.8 | 26.52
Bond    | 0.00099376 | 0.001175   | 0.0018984  |   0.5 |  0.01
Kspace  | 4.2816     | 5.019      | 5.7421     |  13.1 | 47.97
Neigh   | 0.077794   | 0.08103    | 0.082956   |   0.6 |  0.77
Comm    | 1.0126     | 1.1311     | 1.2608     |   5.3 | 10.81
Output  | 9.0429e-05 | 9.3148e-05 | 0.00010417 |   0.0 |  0.00
Modify  | 1.0987     | 1.2996     | 1.3866     |   6.0 | 12.42
Other   |            | 0.156      |            |       |  1.49

Nlocal:    24 ave 34 max 11 min
Histogram: 2 0 1 15 31 22 37 14 4 2
Nghost:    2933.43 ave 2958 max 2910 min
Histogram: 5 11 14 17 15 21 20 10 10 5
Neighs:    9188.65 ave 14674 max 4111 min
Histogram: 1 2 8 28 34 30 16 4 4 1

Total # of neighbors = 1176147
Ave neighs/atom = 382.86
Ave special neighs/atom = 1.95312
Neighbor list builds = 242
Dangerous builds = 0
reset_timestep 0

# continuing the initialization with the final value of timestep
unfix integrate
fix integrate all npt temp ${Temp} ${Temp} 100.0 iso ${Pres} ${Pres} 1000.0
fix integrate all npt temp 298 ${Temp} 100.0 iso ${Pres} ${Pres} 1000.0
fix integrate all npt temp 298 298 100.0 iso ${Pres} ${Pres} 1000.0
fix integrate all npt temp 298 298 100.0 iso 1 ${Pres} 1000.0
fix integrate all npt temp 298 298 100.0 iso 1 1 1000.0
#fix integrate all rigid/npt/small molecule temp ${Temp} ${Temp} 100.0 iso ${Pres} ${Pres} 1000.0

timestep ${tstep}
timestep 2
run ${Ninpt}
run 5000000
PPPM initialization ...
  extracting TIP4P info from pair style
  using 12-bit tables for long-range coulomb (../kspace.cpp:321)
  G vector (1/distance) = 0.311599
  grid = 30 30 30
  stencil order = 5
  estimated absolute RMS force accuracy = 0.00349025
  estimated relative force accuracy = 1.05108e-05
  using double precision FFTs
  3d grid and FFT values/proc = 2475 256
Per MPI rank memory allocation (min/avg/max) = 8.201 | 8.212 | 8.219 Mbytes
Step Temp E_pair E_mol TotEng Press Volume 
       0    296.17323   -15738.241            0   -13909.887   -562.63157     31291.14 
   10000    304.18886   -15704.127            0   -13826.291   -271.95568    31461.978 
   20000    297.74483   -15771.954            0   -13933.899   -61.415379    31039.408 
   30000    290.11433   -15783.297            0   -13992.347   -353.82432    31477.933 
   40000    291.70713   -15765.599            0   -13964.815   -124.35233    31362.075 
   50000    302.75204   -15739.676            0    -13870.71   -348.12676    31241.223 
   60000    290.98082   -15810.271            0   -14013.971   -455.53951    31678.422 
   70000    303.09298   -15846.788            0   -13975.717    786.82439    31065.627 
   80000    302.37709   -15774.576            0   -13907.925    112.37429    31001.078 
   90000    305.74467   -15744.845            0   -13857.405   -258.20393    31141.736 
  100000    291.22528   -15669.411            0   -13871.602    424.38632    31043.953 
  110000    293.55087   -15825.121            0   -14012.956    1112.7093    30588.855 
  120000    284.52324    -15830.74            0   -14074.305    -817.3738    31680.953 
  130000    291.53251   -15774.137            0   -13974.432   -161.23432     31411.47 
  140000    297.24818   -15857.516            0   -14022.526    354.96583    31094.711 
  150000    302.57352   -15770.152            0   -13902.287    39.751956    30952.435 
  160000    290.03226   -15803.049            0   -14012.605    1016.4125     30757.02 
  170000    289.89283   -15824.892            0   -14035.309    642.99014     30822.18 
  180000     303.9952   -15783.625            0   -13906.984    148.60631    31116.579 
  190000    289.74543    -15687.56            0   -13898.886    592.69527    30816.496 
  200000    300.40817   -15780.079            0   -13925.582   -225.05589     31555.99 
  210000    292.30602   -15775.941            0   -13971.461   -647.44767    31179.361 
  220000    296.81389   -15637.446            0   -13805.138   -242.08162    31614.738 
  230000     293.1244   -15729.085            0   -13919.552    -12.75177    31092.806 
  240000    300.62683    -15703.32            0   -13847.473    441.47757    30956.194 
  250000    293.15678   -15791.758            0   -13982.025    563.52395    30868.768 
  260000    298.41932   -15776.741            0   -13934.522    290.40349    31424.328 
  270000    309.94425   -15793.038            0   -13879.673   -139.98433    31063.784 
  280000    298.13673   -15800.271            0   -13959.796   -405.65604     31326.14 
  290000    296.82823   -15768.253            0   -13935.856   -228.20866    31415.718 
  300000    289.43236   -15738.348            0   -13951.607   -629.57921    31292.307 
  310000    305.84557   -15720.385            0   -13832.322    373.78182    31203.706 
  320000     297.5856   -15745.811            0   -13908.738   -327.84751    31595.594 
  330000    304.90201   -15806.827            0   -13924.588    621.88024    31421.706 
  340000    303.91743   -15861.972            0   -13985.811    -415.0354    31064.236 
  350000    291.53819   -15723.245            0   -13923.505   -431.83534    31892.167 
  360000     313.3316   -15775.276            0   -13840.999    499.83792    31118.694 
  370000    302.29078   -15842.168            0    -13976.05    159.70134    30842.682 
  380000    303.98019   -15847.917            0   -13971.369    487.87327    31124.622 
  390000    300.26204   -15756.972            0   -13903.377    590.21712    31556.497 
  400000    308.77515   -15670.103            0   -13763.955    -89.41573    31423.024 
  410000    295.24383   -15723.778            0   -13901.161    813.78948    31312.012 
  420000    301.41953   -15764.447            0   -13903.706   -443.60042    31281.728 
  430000    296.37664   -15781.997            0   -13952.388   -243.46143    31452.614 
  440000    290.87342    -15798.46            0   -14002.823   -507.60793    31141.846 
  450000    295.12795   -15718.241            0    -13896.34    300.14907    31294.174 
  460000    296.26297   -15821.652            0   -13992.744    521.94517    30986.444 
  470000    293.82306   -15758.695            0   -13944.849      434.404    31011.935 
  480000    290.23879   -15699.153            0   -13907.434    523.22443    31289.958 
  490000    303.02213    -15708.05            0   -13837.416   -156.12624     31401.34 
  500000    300.77672   -15903.099            0   -14046.327   -108.38124     31628.83 
  510000    304.72724   -15940.397            0   -14059.237    204.91887    31128.346 
  520000    295.51588   -15780.693            0   -13956.397    199.86155    31184.998 
  530000    295.01092   -15734.208            0    -13913.03    674.21252     31193.13 
  540000    288.09814   -15690.896            0   -13912.392   -1159.7482    31475.372 
  550000    296.50264   -15758.216            0   -13927.829    260.75897    31351.848 
  560000    297.10284   -15852.255            0   -14018.163    437.54682    31375.765 
  570000    299.26658   -15963.633            0   -14116.183    716.94846    30841.643 
  580000    296.86238   -15775.006            0   -13942.398     473.2132    31057.384 
  590000    295.96963   -15817.877            0    -13990.78    568.96432     31106.13 
  600000    291.84476   -15754.205            0   -13952.572    941.32366    30791.909 
  610000    286.61162   -15698.678            0   -13929.351    181.00902    31424.974 
  620000    299.91627   -15793.213            0   -13941.753    289.86719    30750.517 
  630000    308.35261   -15739.233            0   -13835.693    600.12572    31091.099 
  640000    297.75851   -15738.087            0   -13899.947     410.9896    30944.609 
  650000    298.40859   -15819.431            0   -13977.278    295.09721    31044.605 
  660000    295.80947   -15815.482            0   -13989.374    -648.3614    31313.813 
  670000    301.18557   -15784.669            0   -13925.373    -738.4704    31559.332 
  680000    303.93398   -15742.738            0   -13866.475    -753.1877    31663.871 
  690000     303.1847   -15696.344            0   -13824.707   -76.216514    31191.219 
  700000    291.92582   -15771.743            0   -13969.609    43.835087    31493.372 
  710000    304.71745     -15751.7            0   -13870.601    140.90274    30819.133 
  720000    294.94208   -15784.355            0   -13963.602   -222.95321    31513.556 
  730000    293.04758   -15810.853            0   -14001.795    871.48369    30830.601 
  740000    297.66198   -15734.512            0   -13896.968    753.40302    30934.432 
  750000    296.14518   -15839.036            0   -14010.855    320.12106    30825.707 
  760000    298.98626    -15839.85            0    -13994.13    573.30901    31126.116 
  770000    297.70792   -15700.887            0   -13863.059    444.25636    31426.877 
  780000    284.57534   -15774.882            0   -14018.125    37.146461    31294.402 
  790000    301.94954    -15848.23            0   -13984.217    74.378666    31497.893 
  800000    306.05638   -15818.109            0   -13928.744   -469.86062    31209.283 
  810000    307.62865   -15719.414            0   -13820.343   -639.38367    31281.365 
  820000    286.76163   -15717.434            0   -13947.181     30.45554    30901.594 
  830000    310.39018   -15771.043            0   -13854.924    987.06706    30911.642 
  840000     302.6484   -15691.513            0   -13823.187   -929.03294    31314.517 
  850000    302.48772   -15858.568            0   -13991.233   -1139.8645    31463.874 
  860000    288.64652   -15843.668            0   -14061.779    164.26519     31053.83 
  870000    302.07495   -15849.641            0   -13984.854   -535.01178    31453.375 
  880000    296.46638   -15838.078            0   -14007.914    658.13482    31034.476 
  890000    298.61096    -15899.22            0   -14055.818    542.17658    31453.469 
  900000    294.40844   -15720.605            0   -13903.146   -228.16458    31061.169 
  910000    296.28617   -15825.378            0   -13996.327   -594.95998    31574.726 
  920000    303.30748   -15830.018            0   -13957.623    355.12846    30949.858 
  930000    303.26486   -15857.772            0    -13985.64     802.7292    30875.819 
  940000    292.31613     -15807.4            0   -14002.857   -331.01006    31574.456 
  950000    299.43173   -15732.695            0   -13884.225     496.7528    31315.573 
  960000    298.13907   -15835.423            0   -13994.934   -753.47535    31263.125 
  970000     279.1312   -15669.371            0   -13946.223   -304.24031    31266.479 
  980000    289.42938   -15729.324            0   -13942.602   -246.81875    31190.782 
  990000    293.61913   -15782.242            0   -13969.656   -365.99688    31543.051 
 1000000    288.06287   -15769.678            0   -13991.391   -924.28982    31431.872 
 1010000    305.21563   -15717.458            0   -13833.283   -393.83161    31639.221 
 1020000    303.15331   -15766.601            0   -13895.157   -399.31602    31412.961 
 1030000     296.6735    -15686.54            0   -13855.098    50.154823    31272.976 
 1040000    298.94989   -15795.255            0   -13949.761    234.42397     31222.25 
 1050000    293.67065   -15745.404            0   -13932.499   -505.14715    31290.459 
 1060000    290.93211   -15749.906            0   -13953.907   -340.31195    31169.605 
 1070000    306.14249   -15705.253            0   -13815.357     540.1042    31386.969 
 1080000    302.40908   -15824.725            0   -13957.876    224.07518    31340.899 
 1090000    306.93509   -15834.355            0   -13939.566    153.42307    31062.898 
 1100000    302.17839   -15757.653            0   -13892.228    -717.4148    31746.404 
 1110000    297.72834    -15839.92            0   -14001.966    1185.7953    30984.972 
 1120000    287.52636    -15747.44            0   -13972.466     67.40419    30979.023 
 1130000    288.75114   -15713.834            0   -13931.299   -11.603148    31261.903 
 1140000    290.76673   -15802.955            0   -14007.977    142.09601    31417.557 
 1150000    290.65434   -15726.692            0   -13932.408    720.00534    31194.424 
 1160000      305.653   -15795.167            0   -13908.293   -410.59541    31599.897 
 1170000    299.18267   -15770.139            0   -13923.207   -555.15446    31292.726 
 1180000    293.66731   -15823.627            0   -14010.743    53.136338    31102.706 
 1190000    292.54558   -15836.194            0   -14030.235   -712.74508    31520.391 
 1200000    312.87524   -15822.887            0   -13891.427    446.39882    30756.532 
 1210000    297.30968    -15815.91            0   -13980.541    395.44855    31407.748 
 1220000    300.97268   -15816.059            0   -13958.077    248.32585    31317.462 
 1230000    303.76063   -15763.517            0   -13888.325    378.32266    31498.057 
 1240000    296.73103    -15785.53            0   -13953.732      388.718    31619.151 
 1250000    296.47663   -15671.309            0   -13841.083   -411.21071    31660.785 
 1260000    296.65694   -15802.445            0   -13971.105   -388.88176    31495.327 
 1270000    294.51896   -15822.151            0    -14004.01    335.04133    30816.936 
 1280000    301.74447   -15901.987            0   -14039.241    430.93886    30710.795 
 1290000    296.67024   -15871.607            0   -14040.185   -374.27699    31189.155 
 1300000    304.78669   -15776.386            0   -13894.859    370.80389    31506.559 
 1310000    297.23822   -15879.563            0   -14044.635   -536.07508    31081.447 
 1320000    300.89449   -15846.163            0   -13988.664   -389.69301     31182.39 
 1330000    296.51508   -15866.071            0   -14035.607   -401.69992    31632.368 
 1340000    296.02448   -15738.732            0   -13911.297   -79.363752    30966.251 
 1350000    294.58614   -15755.946            0    -13937.39   -547.10431    30887.544 
 1360000     298.5048   -15841.182            0   -13998.435   -379.73934    31481.842 
 1370000    301.27141   -15764.928            0   -13905.102    488.82541    31184.262 
 1380000    299.60852   -15732.488            0   -13882.927   -223.67736    31403.556 
 1390000    290.24199   -15742.144            0   -13950.406    260.60467    31031.495 
 1400000    301.96799   -15725.871            0   -13861.745   -193.80043    31083.844 
 1410000     297.6161   -15815.023            0   -13977.762   -21.903001    31401.463 
 1420000    304.89621    -15743.43            0   -13861.227    499.12501    30532.641 
 1430000    288.07525   -15798.037            0   -14019.674    93.725101    31418.456 
 1440000    304.19798   -15764.864            0   -13886.971    19.799214    31488.766 
 1450000    313.07092   -15745.894            0   -13813.227    191.98129    31026.039 
 1460000    297.08528   -15745.695            0   -13911.711    87.522536    31485.215 
 1470000    296.97432   -15858.065            0   -14024.766    455.78566    30914.248 
 1480000     293.0373   -15758.462            0   -13949.467    222.83192    31407.492 
 1490000    295.52094   -15703.245            0   -13878.918    203.42632    31239.258 
 1500000     298.2163   -15805.976            0    -13965.01     351.7446    31050.811 
 1510000    298.94451   -15757.488            0   -13912.027    594.15053    31401.094 
 1520000    303.18637   -15854.467            0    -13982.82    181.41692    31204.736 
 1530000    293.09766   -15790.943            0   -13981.576   -33.077317    31028.086 
 1540000    298.24869   -15848.466            0     -14007.3    -116.8312    31237.369 
 1550000    296.93153   -15664.752            0   -13831.717   -236.83233    31662.637 
 1560000    292.65319   -15741.627            0   -13935.003    727.60602    31179.395 
 1570000    304.74292   -15745.586            0    -13864.33    792.73356    30970.334 
 1580000     293.2141   -15768.051            0   -13957.964      21.4108    31014.833 
 1590000    300.77834   -15732.646            0   -13875.863     1283.681    31067.251 
 1600000    289.71707   -15829.238            0    -14040.74    -609.2569    31493.822 
 1610000    289.23633   -15725.996            0   -13940.466    556.92985     31011.82 
 1620000    301.56123   -15768.897            0   -13907.282   -248.24595    31539.803 
 1630000    303.82067   -15770.642            0   -13895.079    9.0586214    31141.839 
 1640000    293.31449   -15841.277            0   -14030.571   -481.13805     31080.36 
 1650000    294.07784   -15729.562            0   -13914.144    -93.49028    31370.749 
 1660000    294.74201   -15803.488            0   -13983.969   -335.10707    31269.574 
 1670000    298.58201   -15844.587            0   -14001.364   -107.58336     31247.84 
 1680000    289.83819   -15812.874            0   -14023.629    1174.9777    30758.937 
 1690000    311.02704    -15706.01            0   -13785.959    553.41797      31354.5 
 1700000    292.85093   -15775.592            0   -13967.748    441.53252    31135.288 
 1710000    297.60178   -15804.573            0   -13967.401    -222.3992    31009.851 
 1720000    296.26003   -15761.065            0   -13932.175    548.02302     31279.21 
 1730000    294.36214   -15756.392            0   -13939.219    192.40875    31433.305 
 1740000    299.35464   -15739.754            0    -13891.76    536.89619    30935.721 
 1750000    302.95888    -15743.58            0   -13873.337   -910.41362    31132.837 
 1760000    297.92412   -15779.779            0   -13940.617    605.89912    30965.166 
 1770000      298.494   -15753.484            0   -13910.804   -851.58647    32011.917 
 1780000    294.41871   -15739.358            0   -13921.836   -109.36978    31168.597 
 1790000    297.04241    -15791.36            0    -13957.64    767.13648    30987.569 
 1800000    301.59383   -15885.331            0   -14023.514    690.20475     30665.06 
 1810000    295.66531   -15810.714            0   -13985.496    133.84545     31523.56 
 1820000    300.94684    -15740.87            0   -13883.048   -190.56793    31593.366 
 1830000    303.51663   -15756.938            0   -13883.252     651.6252    31247.454 
 1840000    295.08703   -15701.995            0   -13880.347    456.02133    31258.958 
 1850000    296.83652    -15836.83            0   -14004.381   -413.20057     31166.44 
 1860000    297.77859   -15782.556            0   -13944.292   -818.65723    31375.003 
 1870000    300.94364   -15755.934            0   -13898.131    91.800402    31262.377 
 1880000    296.20035   -15776.943            0   -13948.422    327.74294    31403.207 
 1890000    293.78232   -15791.252            0   -13977.659   -420.25732    31147.773 
 1900000    293.17423   -15804.556            0   -13994.715    522.76641    30983.331 
 1910000    299.67804   -15727.651            0   -13877.662   -384.06082     31441.48 
 1920000     300.1467   -15779.359            0   -13926.476   -353.31664    31680.442 
 1930000    298.08072   -15825.536            0   -13985.407   -86.517042    31259.921 
 1940000    299.88833   -15775.984            0   -13924.696   -296.56958    30952.737 
 1950000    301.27188   -15793.783            0   -13933.954    9.0126602    31408.067 
 1960000    295.88395   -15784.012            0   -13957.444   -506.24981    31023.638 
 1970000    293.80839   -15714.268            0   -13900.513   -397.34111    31490.274 
 1980000    293.21496   -15892.879            0   -14082.788    42.388641    31009.907 
 1990000    291.35295   -15789.689            0   -13991.092    202.73864    31398.674 
 2000000    294.22707   -15786.241            0   -13969.901   -146.08714    31117.047 
 2010000    306.84798    -15796.79            0   -13902.539    1125.6415    30443.888 
 2020000    294.39793   -15802.017            0   -13984.622    127.34791     31373.03 
 2030000    295.44422   -15876.452            0   -14052.599    -80.61585    30805.421 
 2040000    287.93869   -15786.819            0     -14009.3    796.26915     31038.75 
 2050000    290.19747   -15846.578            0   -14055.114   -626.47013    31394.235 
 2060000    301.14268   -15829.291            0    -13970.26   -691.42727    31218.215 
 2070000    297.39907   -15798.297            0   -13962.375    418.83631    30860.296 
 2080000    303.89749   -15799.816            0   -13923.778   -302.89701    31103.456 
 2090000    302.84445   -15816.689            0   -13947.153    175.33172    31487.277 
 2100000    296.31093   -15753.015            0   -13923.812    284.34145    30867.897 
 2110000     299.2068   -15887.619            0   -14040.538     508.5223    30925.696 
 2120000    292.76798   -15733.613            0   -13926.281   -522.13195    31285.101 
 2130000    293.18675   -15798.808            0   -13988.891    603.82709    31572.724 
 2140000    307.15679   -15749.295            0   -13853.137    562.03505    30689.131 
 2150000    305.37193   -15870.999            0    -13985.86    -136.9651    31135.866 
 2160000    297.50286   -15780.133            0   -13943.572    213.25858    30819.503 
 2170000    300.13785   -15782.953            0   -13930.125     350.3192    31121.308 
 2180000    300.78701   -15724.396            0   -13867.561    -533.2443    31318.219 
 2190000    299.13877   -15770.181            0    -13923.52    484.54833    30804.655 
 2200000    297.02498   -15730.651            0    -13897.04   -966.58093    31252.519 
 2210000    283.61641    -15881.02            0   -14130.183    49.338398    30987.456 
 2220000    295.72843   -15910.702            0   -14085.094    735.09829    30566.181 
 2230000    298.63207   -15811.529            0   -13967.996    491.31979    31566.343 
 2240000    298.16746   -15693.196            0   -13852.531   -302.62619    31664.245 
 2250000    301.34602   -15822.076            0   -13961.789    191.06976    31175.735 
 2260000    295.77429   -15848.976            0   -14023.085    883.44244    31167.654 
 2270000    305.50569   -15787.324            0   -13901.358   -206.56125    31342.298 
 2280000    300.47166   -15763.263            0   -13908.374    376.03535     31040.21 
 2290000    295.08219    -15714.35            0   -13892.732    -238.5291     31323.51 
 2300000    291.11062   -15731.428            0   -13934.328   -538.45864      31226.5 
 2310000    295.95543   -15824.986            0   -13997.977    379.24831    31393.057 
 2320000    297.62843   -15806.489            0   -13969.152    252.24328    30994.756 
 2330000    310.94536   -15781.467            0   -13861.921   -499.55622    30935.073 
 2340000    300.33181   -15735.217            0   -13881.192   -385.62278    31065.977 
 2350000    303.26193   -15801.962            0   -13929.848    131.51798    30715.693 
 2360000    297.91383   -15806.543            0   -13967.444   -622.11443    31642.184 
 2370000    292.77565   -15850.678            0   -14043.299    423.34999    31158.785 
 2380000    286.97326    -15797.62            0    -14026.06   -990.47997    31386.479 
 2390000    299.09794   -15752.479            0   -13906.071    824.29805    31315.977 
 2400000    302.92331   -15798.425            0   -13928.402   -508.76036    31084.824 
 2410000     299.0416   -15783.269            0   -13937.208    484.74722    30972.766 
 2420000    301.34904   -15801.167            0   -13940.861    204.62277    30969.713 
 2430000    293.54697   -15730.196            0   -13918.055   -777.83182    31093.911 
 2440000     291.8725   -15751.392            0   -13949.588    282.75164    31026.885 
 2450000    301.80973   -15800.215            0   -13937.066    846.75653    31004.952 
 2460000    296.31589   -15813.972            0   -13984.738    527.03009     31199.32 
 2470000    307.90453   -15736.028            0   -13835.254    -379.2261    31315.542 
 2480000    296.95969   -15776.191            0   -13942.982   -14.741298    30681.787 
 2490000    298.45394    -15756.01            0   -13913.577   -302.50864    31185.565 
 2500000    298.75769   -15758.353            0   -13914.045   -898.53809    31672.755 
 2510000    303.52835   -15775.435            0   -13901.676   -77.794678    31566.096 
 2520000    311.45729   -15702.404            0   -13779.698   -839.94878    31658.499 
 2530000    292.51231   -15861.225            0   -14055.472   -375.82017    31230.787 
 2540000    298.27966   -15771.749            0   -13930.392   -278.14732    31524.692 
 2550000    298.79629   -15791.314            0   -13946.768      247.652    31024.692 
 2560000    300.77554   -15695.944            0   -13839.179   -17.149197    31273.817 
 2570000    295.52031   -15818.159            0   -13993.836    106.85514    30408.045 
 2580000    295.55969   -15856.116            0    -14031.55    150.14257    31082.499 
 2590000    300.24652   -15730.017            0   -13876.518     471.2215    31046.098 
 2600000    302.12415   -15739.719            0   -13874.629    201.71857    31095.508 
 2610000    298.82349   -15663.343            0   -13818.629   -102.78312    31594.092 
 2620000    307.46075   -15741.398            0   -13843.363     95.13094    31083.487 
 2630000    305.65651   -15737.117            0    -13850.22    375.53232    31024.558 
 2640000    286.17669   -15767.282            0    -14000.64    -600.5231    31609.955 
 2650000    301.83877   -15864.999            0   -14001.671   -327.80491    31618.261 
 2660000    296.01137   -15833.141            0   -14005.787   -293.46694    31518.583 
 2670000    298.40251   -15741.358            0   -13899.242    359.60273    31424.656 
 2680000    299.26574   -15813.195            0   -13965.751     499.7721    31159.637 
 2690000    299.23255   -15784.633            0   -13937.394    792.72412    30817.688 
 2700000    290.05589    -15720.54            0   -13929.951   -677.41343     31404.22 
 2710000    293.81048   -15748.363            0   -13934.595    732.95444    30950.434 
 2720000    300.86919   -15788.611            0   -13931.268   -1116.2668    31419.181 
 2730000    297.40746   -15636.332            0   -13800.359    442.47224    31327.051 
 2740000     304.6176   -15834.564            0   -13954.081    1013.5288    30830.092 
 2750000    292.49938   -15788.294            0    -13982.62    335.86241    31308.855 
 2760000    302.88195   -15726.953            0   -13857.184     169.6239    31108.008 
 2770000    304.85533   -15726.889            0   -13844.938    513.94021    31207.073 
 2780000     306.5264   -15868.129            0   -13975.863    222.78956    31248.439 
 2790000    304.80617   -15745.595            0   -13863.948    180.94471    31246.324 
 2800000    296.10064   -15812.096            0   -13984.191    27.428082     31252.79 
 2810000     298.1406   -15780.032            0   -13939.534   -230.43405    31221.297 
 2820000    298.49756   -15878.259            0   -14035.557    560.78212    30947.966 
 2830000    292.43461   -15706.594            0    -13901.32   -402.72852    31717.036 
 2840000    295.60238   -15728.646            0   -13903.817    349.53862    30841.546 
 2850000    294.94227   -15754.746            0   -13933.992   -747.77356    31475.054 
 2860000    296.94529   -15733.568            0   -13900.449     358.8273     31613.91 
 2870000    291.65766   -15792.891            0   -13992.413    89.423154    31199.758 
 2880000    297.00429   -15807.923            0   -13974.439   -370.04931    31259.884 
 2890000    305.70191   -15770.771            0   -13883.595   -357.94415    31644.697 
 2900000    303.37196   -15875.887            0   -14003.094    264.84862    31138.708 
 2910000    285.18735   -15829.733            0   -14069.198    421.70052    31088.996 
 2920000    304.66323   -15663.702            0   -13782.938   -679.89508    31441.648 
 2930000    303.40202   -15756.643            0   -13883.664   -471.20171    31567.448 
 2940000    295.13086   -15699.143            0   -13877.225   -30.557638    31537.069 
 2950000    296.71662   -15802.797            0   -13971.088    606.69098    30844.342 
 2960000    286.92924   -15789.432            0   -14018.144   -742.04759    31498.163 
 2970000    289.15393   -15823.339            0   -14038.317   -248.44245     31626.98 
 2980000    293.17641    -15700.17            0   -13890.316   -286.12256    31414.547 
 2990000    294.06691   -15786.734            0   -13971.383     -202.914    31638.453 
 3000000    309.70162   -15758.532            0   -13846.664    50.155875    31280.317 
 3010000    303.07038   -15726.036            0   -13855.104    581.30896    30792.029 
 3020000     285.2855   -15817.801            0    -14056.66    409.78163    31256.616 
 3030000    293.02635     -15717.6            0   -13908.673   -339.80411    31797.699 
 3040000    308.13227   -15839.875            0   -13937.695    140.99079    30892.586 
 3050000    299.45574   -15757.726            0   -13909.108   -182.86592     31322.27 
 3060000    292.31362   -15896.689            0   -14092.161    402.50615    31045.397 
 3070000    298.56354   -15803.667            0   -13960.557    -143.6228    30853.942 
 3080000    306.02527   -15588.733            0    -13699.56    660.67116    30907.604 
 3090000    300.30414   -15772.113            0   -13918.258   -402.40321    31306.913 
 3100000    300.87879   -15819.686            0   -13962.284   -85.518769    31061.049 
 3110000    296.87013   -15692.722            0   -13860.066    379.53486    31093.726 
 3120000    299.31351   -15727.876            0   -13880.136    1000.4344    30941.587 
 3130000     291.4538   -15674.978            0   -13875.759   -613.54608    31472.753 
 3140000    301.21769   -15657.082            0   -13797.588    343.81857    31100.555 
 3150000    293.58818   -15744.188            0   -13931.792   -607.74972    31302.507 
 3160000    303.68824   -15691.082            0   -13816.336    1024.2886    30871.522 
 3170000    306.91899   -15799.752            0   -13905.062    478.79731    30935.079 
 3180000    299.88681    -15808.19            0   -13956.912   -970.23794    31618.187 
 3190000     292.7524   -15799.498            0   -13992.262   -122.64317    31302.262 
 3200000    294.45432   -15750.644            0   -13932.901   -341.58086    31310.643 
 3210000     306.8744   -15625.988            0   -13731.573   -10.515406    32167.697 
 3220000    291.05331   -15804.053            0   -14007.306    115.79269    31056.271 
 3230000    305.53367   -15819.314            0   -13933.176    251.13708    31029.167 
 3240000    296.91309   -15747.338            0   -13914.417   -23.643978    31092.087 
 3250000    295.06469   -15822.363            0   -14000.852   -524.66839    30993.825 
 3260000    300.63337   -15748.461            0   -13892.574   -760.88968    31487.873 
 3270000    300.05167   -15775.451            0   -13923.155    30.414044    31159.997 
 3280000    296.09901   -15784.997            0   -13957.102   -828.72103     31678.55 
 3290000    307.34519   -15905.519            0   -14008.198    133.27023    31163.316 
 3300000    291.73932   -15780.455            0   -13979.473      785.206    30997.443 
 3310000    298.19052   -15769.446            0   -13928.639   -312.19189    31176.558 
 3320000    292.85979   -15778.885            0   -13970.986    87.859814    31012.797 
 3330000    307.99648   -15838.525            0   -13937.183     779.4828    31198.593 
 3340000    307.35914   -15821.969            0   -13924.562    446.50787     30889.97 
 3350000    302.51423   -15783.571            0   -13916.073   -27.288522    30893.841 
 3360000    295.61156   -15728.256            0   -13903.369    314.51568    31116.561 
 3370000    299.80004   -15750.386            0   -13899.643    -1113.085    31954.295 
 3380000    306.53097   -15677.997            0   -13785.702    401.86258     31252.37 
 3390000    304.93701   -15768.823            0   -13886.368    41.546064     31463.27 
 3400000    295.44342   -15807.435            0   -13983.587    1097.5935    31171.407 
 3410000    289.39038   -15768.486            0   -13982.005    86.868914    31397.695 
 3420000    288.93438   -15689.015            0   -13905.349   -391.44541    31184.312 
 3430000    307.76435   -15881.593            0   -13981.684    951.20013    30931.296 
 3440000    287.42036   -15666.882            0   -13892.562   -67.027562     31179.94 
 3450000    295.88326   -15685.841            0   -13859.278   -546.69595    31383.671 
 3460000    291.20031   -15783.009            0   -13985.354    417.27946    30925.941 
 3470000    295.14218   -15800.022            0   -13978.033   -123.44936    30858.753 
 3480000    303.13269   -15931.366            0    -14060.05   -552.46294    31036.119 
 3490000     291.5827   -15824.524            0   -14024.508    31.140993    31112.684 
 3500000    299.87164   -15828.929            0   -13977.744    11.666339    30946.049 
 3510000    292.51995   -15818.386            0   -14012.585    551.00465    31178.243 
 3520000    296.25263   -15841.943            0   -14013.099    223.90356    31300.117 
 3530000    303.94296   -15732.947            0   -13856.629    1140.6535    31208.264 
 3540000    300.48532   -15774.064            0    -13919.09    830.46985    31413.601 
 3550000    302.50618   -15700.187            0   -13832.739   -33.469443    31386.497 
 3560000    301.90356   -15733.893            0   -13870.164    -226.3308     31361.76 
 3570000    289.14691   -15778.555            0   -13993.576    137.79903    31215.796 
 3580000    301.66114   -15816.307            0   -13954.075    420.65679    31564.031 
 3590000    305.19491   -15817.645            0   -13933.598    583.87816    30935.321 
 3600000    301.06662   -15864.745            0   -14006.183   -83.684589    31033.731 
 3610000    301.39546   -15725.537            0   -13864.945    866.42675    30977.669 
 3620000    290.04846   -15815.465            0   -14024.921    250.91305    31162.191 
 3630000    295.02056   -15791.552            0   -13970.314    249.08977    30938.525 
 3640000    292.33203   -15812.112            0   -14007.471   -320.76878    31024.266 
 3650000    305.83058   -15827.092            0   -13939.121    1029.5515    30822.703 
 3660000    299.74543   -15860.617            0   -14010.211   -658.72978    31242.133 
 3670000    301.92575    -15745.71            0   -13881.845     325.4201    31005.253 
 3680000    288.97853   -15806.196            0   -14022.257    977.96641    30803.068 
 3690000    300.14502   -15810.671            0   -13957.799   -180.93564    30735.999 
 3700000    303.19486   -15781.648            0   -13909.948   -143.53312     30917.47 
 3710000    298.50261   -15692.617            0   -13849.883    233.04352    31321.609 
 3720000    290.86637   -15714.983            0    -13919.39   -652.49662    31233.811 
 3730000    299.97622   -15761.459            0   -13909.628   -135.35252    31648.608 
 3740000    300.25171   -15753.202            0   -13899.671   -397.12776    31208.383 
 3750000    309.26419   -15787.812            0   -13878.644    572.20723     31243.25 
 3760000    294.02317   -15722.494            0   -13907.413   -665.77213    31396.334 
 3770000    299.30961   -15801.108            0   -13953.393    729.19849    30957.304 
 3780000    295.49075   -15852.174            0   -14028.034    25.851999    31400.035 
 3790000    302.52917   -15819.059            0   -13951.469    33.037841    31364.464 
 3800000    302.23677   -15928.808            0   -14063.022   -96.154149    30877.733 
 3810000    302.81598   -15785.754            0   -13916.393    643.76531    31192.993 
 3820000    291.50514   -15789.553            0   -13990.017    127.37404     30985.53 
 3830000    294.25598    -15798.27            0   -13981.752   -854.96886    31477.437 
 3840000    300.09105   -15772.866            0   -13920.327   -453.12551    31002.806 
 3850000    302.04593   -15722.321            0   -13857.713   -701.00182    31238.033 
 3860000    295.81609   -15736.765            0   -13910.616   -833.61758    31404.547 
 3870000    297.31527    -15743.14            0   -13907.736   -59.076426    31548.112 
 3880000    295.28927   -15753.866            0   -13930.969    495.53224        31162 
 3890000    304.95207   -15810.175            0   -13927.627   -414.02463    31037.817 
 3900000    297.15473   -15782.162            0    -13947.75    89.740695    31346.653 
 3910000    299.32828   -15890.014            0   -14042.184   -308.58361    31234.689 
 3920000    303.94033   -15767.304            0   -13891.002   -291.69231    31065.626 
 3930000    288.80253   -15770.087            0   -13987.234     369.6355     31304.62 
 3940000    298.88696   -15693.743            0   -13848.637   -383.94787    31457.093 
 3950000      291.719   -15853.703            0   -14052.846   -352.51271      31209.3 
 3960000    296.02622   -15773.535            0   -13946.088    461.62281    30809.639 
 3970000    300.22375   -15742.988            0    -13889.63   -338.32823    31369.698 
 3980000    291.53035   -15813.706            0   -14014.014    139.75443    31291.493 
 3990000    297.49422   -15911.934            0   -14075.425   -16.046742    31170.022 
 4000000    292.46407   -15704.965            0   -13899.509    413.14308    31311.487 
 4010000      299.266    -15812.46            0   -13965.014    3.4515767    31785.304 
 4020000    297.28587   -15791.712            0   -13956.489    484.64922    31104.003 
 4030000    297.34349   -15899.497            0   -14063.919    308.96025    31140.951 
 4040000    297.48659   -15716.572            0   -13880.111    3.5972576    31371.384 
 4050000    297.62752   -15825.949            0   -13988.618    803.70961     31081.26 
 4060000    294.68475   -15768.375            0    -13949.21   -881.47842    31453.542 
 4070000    293.78276   -15820.407            0    -14006.81    1145.9561    31112.521 
 4080000    299.64967   -15856.192            0   -14006.378   -214.04168    31115.397 
 4090000    304.37113   -15783.038            0   -13904.077    175.81703     31317.65 
 4100000    300.06596   -15791.401            0   -13939.016   -867.22396    31821.623 
 4110000    308.67166   -15739.117            0   -13833.607   -481.43819    31243.561 
 4120000    300.54891   -15768.241            0   -13912.876    195.11445    31209.658 
 4130000     301.2066   -15777.881            0   -13918.455   -490.51284    31495.916 
 4140000    299.29143   -15723.749            0   -13876.146   -57.816634    31228.432 
 4150000     305.2621   -15686.828            0   -13802.366    234.97377    31866.986 
 4160000    304.44749     -15753.7            0   -13874.268   -686.94692    31478.586 
 4170000     298.1298   -15814.554            0   -13974.122   -1148.8834    31576.287 
 4180000    298.85478   -15723.272            0   -13878.365   -305.33799    31012.086 
 4190000    293.88403   -15698.588            0   -13884.367   -437.58327    31313.637 
 4200000    307.20579   -15764.685            0   -13868.224    1050.5908    30918.809 
 4210000    301.20707   -15805.014            0   -13945.585   -454.74967    31344.613 
 4220000    295.60832   -15748.588            0   -13923.722    -427.1844    31300.233 
 4230000    294.61726   -15882.597            0   -14063.849   -375.96815    31017.339 
 4240000    285.71682   -15703.495            0   -13939.691    746.59421    30715.187 
 4250000     304.1726   -15738.192            0   -13860.456   -317.75483    31465.125 
 4260000    292.81366   -15835.205            0   -14027.591    115.59448    30885.948 
 4270000    300.04858   -15695.656            0   -13843.379    -514.7083    31310.291 
 4280000      298.722   -15724.102            0   -13880.014   -522.28906    31621.411 
 4290000    302.84237   -15805.764            0    -13936.24    8.1132393    31054.789 
 4300000    301.65823   -15786.141            0   -13923.927   -517.50893    31180.382 
 4310000    307.09698   -15822.601            0   -13926.812    1465.2063    30726.336 
 4320000    298.98223   -15841.331            0   -13995.636    393.46584    30934.826 
 4330000    299.72347   -15750.483            0   -13900.213   -1246.0827    31664.905 
 4340000    291.83865   -15811.641            0   -14010.045   -94.221913    30978.958 
 4350000    299.27422   -15735.103            0   -13887.607    172.78502    30827.039 
 4360000    298.73753   -15701.013            0    -13856.83    28.642734    31328.609 
 4370000    294.34249   -15769.728            0   -13952.676    90.813297    31373.705 
 4380000    301.13805   -15769.362            0   -13910.359   -296.00879    31283.205 
 4390000    300.22001   -15783.229            0   -13929.893    371.00734    31357.901 
 4400000    301.82307   -15851.801            0   -13988.569    343.89893    31144.515 
 4410000    298.33795   -15835.465            0   -13993.748   -10.980102    31052.518 
 4420000    292.35474   -15831.645            0   -14026.864   -327.00401    31115.153 
 4430000     299.5333   -15803.252            0   -13954.155    53.676125    31253.153 
 4440000    305.73051   -15799.046            0   -13911.693      -252.59     31278.51 
 4450000    301.71873   -15744.369            0   -13881.782    189.27062    31188.315 
 4460000    296.43738   -15667.831            0   -13837.847    -72.98363    31658.901 
 4470000    297.34036   -15706.403            0   -13870.844   -141.15196    31163.011 
 4480000     302.3625   -15796.305            0   -13929.743    94.477223     31341.11 
 4490000    295.00333   -15774.925            0   -13953.793   -8.0901092    31411.824 
 4500000    286.99083   -15818.979            0   -14047.311   -384.06766    31474.559 
 4510000    290.25892   -15747.842            0   -13955.999    200.06359    31092.441 
 4520000    300.14291   -15713.198            0   -13860.339   -163.43794    31131.845 
 4530000    294.27587   -15795.007            0   -13978.367    785.27724    30571.099 
 4540000    300.05242   -15813.603            0   -13961.302   -466.26046    31521.824 
 4550000    291.11408   -15741.765            0   -13944.643    91.905447    31293.931 
 4560000    284.85765   -15762.663            0   -14004.163   -301.90879    31434.353 
 4570000    291.66042   -15792.872            0   -13992.377    93.881713    30777.184 
 4580000    291.65724   -15738.314            0   -13937.839   -356.82577    31429.825 
 4590000    302.05607   -15807.573            0   -13942.903   -63.171246    31176.646 
 4600000    303.16562   -15720.611            0   -13849.092   -191.25926    31600.636 
 4610000    291.49467    -15678.65            0   -13879.178    -347.7664    31096.073 
 4620000    304.88336   -15809.765            0   -13927.641   -851.72105    31601.774 
 4630000    295.06533   -15732.741            0   -13911.227   -263.99462    31354.279 
 4640000     303.2592   -15700.372            0   -13828.274   -104.38239    31229.199 
 4650000    305.66454   -15813.469            0   -13926.523   -842.66506    31495.864 
 4660000    304.56572   -15788.863            0     -13908.7   -706.75549    31280.268 
 4670000    293.78916    -15756.82            0   -13943.184   -369.21289    31228.382 
 4680000    298.78289   -15763.874            0    -13919.41    740.14183    31072.796 
 4690000    295.82656   -15742.825            0   -13916.611   -634.01163    31381.959 
 4700000    306.26078   -15809.651            0   -13919.024    240.80155    30963.039 
 4710000    296.27655   -15827.666            0   -13998.675   -181.42856    31303.831 
 4720000    307.44523   -15744.463            0   -13846.524   -28.746969    31210.277 
 4730000    294.24412    -15766.78            0   -13950.335   -534.28539     31443.56 
 4740000    301.29232   -15743.556            0   -13883.601   -114.82497    31499.828 
 4750000    309.08006   -15760.374            0   -13852.343    59.651464    31468.063 
 4760000    297.70473   -15814.751            0   -13976.943    582.98061     31101.54 
 4770000     308.4323   -15767.381            0   -13863.349   -929.06355    31276.702 
 4780000    299.83458    -15751.52            0   -13900.564   -488.01365    31241.044 
 4790000    305.77115   -15773.883            0   -13886.279    -16.20182    31070.873 
 4800000    300.09944   -15798.133            0   -13945.542   -474.00902    31083.334 
 4810000    298.08119   -15747.957            0   -13907.825    546.55098    31036.509 
 4820000    297.65998   -15726.182            0    -13888.65    -168.4674    31476.062 
 4830000    306.79323   -15837.473            0   -13943.559    540.49729    31240.015 
 4840000    292.84894   -15749.938            0   -13942.106   -307.88002    31179.251 
 4850000    301.03534   -15818.226            0   -13959.857    999.87863    31037.944 
 4860000    292.86386   -15716.117            0   -13908.193    519.54467    31282.219 
 4870000    300.28941   -15708.091            0   -13854.327     -362.557    31406.437 
 4880000    294.31465   -15711.407            0   -13894.527   -156.65731    31405.513 
 4890000    293.68769   -15681.481            0   -13868.471   -213.83021    31167.979 
 4900000    298.22575   -15792.898            0   -13951.873    211.16704     31184.23 
 4910000    296.84149   -15664.508            0   -13832.029    -392.2982    31255.035 
 4920000    299.40224   -15803.599            0   -13955.312    175.84719    30665.912 
 4930000     300.8389    -15729.23            0   -13872.074    974.58112    31174.012 
 4940000    303.97706    -15674.16            0   -13797.631    974.71095    31290.558 
 4950000     297.5561   -15786.974            0   -13950.084    179.11615    30953.843 
 4960000    298.82546   -15754.968            0   -13910.241    308.94022    31148.828 
 4970000    307.75421   -15803.044            0   -13903.198   -269.13711    31064.872 
 4980000    292.50911   -15853.927            0   -14048.193    991.01318    30901.963 
 4990000    300.18131   -15704.247            0   -13851.151   -525.00211    31191.346 
 5000000    300.66964   -15781.846            0   -13925.735    55.542322    31244.152 
Loop time of 5225.03 on 128 procs for 5000000 steps with 3072 atoms

Performance: 165.358 ns/day, 0.145 hours/ns, 956.932 timesteps/s
99.4% CPU use with 128 MPI tasks x no OpenMP threads

MPI task timing breakdown:
Section |  min time  |  avg time  |  max time  |%varavg| %total
---------------------------------------------------------------
Pair    | 1178.8     | 1408.7     | 1620.9     | 292.8 | 26.96
Bond    | 0.49583    | 0.59       | 0.93084    |  10.0 |  0.01
Kspace  | 2135.2     | 2337.6     | 2549.1     | 222.3 | 44.74
Neigh   | 142.77     | 146.32     | 149.97     |  25.0 |  2.80
Comm    | 546.53     | 611.94     | 686.06     | 130.5 | 11.71
Output  | 0.043687   | 0.056089   | 0.05789    |   1.3 |  0.00
Modify  | 532.6      | 636.48     | 684.58     | 139.0 | 12.18
Other   |            | 83.34      |            |       |  1.59

Nlocal:    24 ave 31 max 15 min
Histogram: 1 5 5 22 8 31 22 12 20 2
Nghost:    2935.72 ave 2967 max 2897 min
Histogram: 3 5 6 16 14 26 27 19 7 5
Neighs:    9203.88 ave 12272 max 5950 min
Histogram: 3 8 13 19 23 12 21 14 9 6

Total # of neighbors = 1178096
Ave neighs/atom = 383.495
Ave special neighs/atom = 1.95312
Neighbor list builds = 437829
Dangerous builds = 0
reset_timestep 0

#################### 2) Obtaining average volume in NPT ######################
# Getting the average volume of the system
variable Volume equal vol
fix VoluAve all ave/time 1 ${Npnpt} ${Npnpt} v_Volume file volume.dat
fix VoluAve all ave/time 1 5000000 ${Npnpt} v_Volume file volume.dat
fix VoluAve all ave/time 1 5000000 5000000 v_Volume file volume.dat


# Thermo style for outputing system properties to the log file
thermo_style custom density
thermo_modify flush yes

variable Dens equal density
fix DensAve all ave/time 1 ${NBR} ${NBR} v_Dens file density.dat
fix DensAve all ave/time 1 100000 ${NBR} v_Dens file density.dat
fix DensAve all ave/time 1 100000 100000 v_Dens file density.dat

run ${Npnpt}
run 5000000
PPPM initialization ...
  extracting TIP4P info from pair style
  using 12-bit tables for long-range coulomb (../kspace.cpp:321)
  G vector (1/distance) = 0.311635
  grid = 30 30 30
  stencil order = 5
  estimated absolute RMS force accuracy = 0.00348505
  estimated relative force accuracy = 1.04951e-05
  using double precision FFTs
  3d grid and FFT values/proc = 2475 256
Per MPI rank memory allocation (min/avg/max) = 8.201 | 8.212 | 8.219 Mbytes
Density 
   1.0692793 
   1.0680209 
   1.0862073 
    1.077868 
   1.0611062 
   1.0724258 
   1.0659151 
   1.0657491 
   1.0651123 
   1.0694776 
   1.0595042 
   1.0749518 
   1.0709659 
   1.0744384 
   1.0508816 
   1.0700524 
   1.0759591 
   1.0848644 
   1.0640294 
   1.0708968 
   1.0503342 
   1.0673113 
   1.0627963 
   1.0714917 
   1.0729589 
   1.0830438 
   1.0726546 
   1.0511199 
   1.0548227 
   1.0708533 
   1.0746344 
   1.0764788 
   1.0711619 
   1.0716764 
   1.0736647 
   1.0789026 
   1.0682489 
   1.0701539 
   1.0761397 
   1.0745149 
   1.0733098 
   1.0742031 
   1.0790267 
   1.0481449 
   1.0701864 
   1.0568693 
   1.0631573 
   1.0843634 
   1.0685849 
   1.0580358 
   1.0644612 
   1.0652297 
   1.0692425 
   1.0661557 
   1.0814623 
   1.0664445 
   1.0750954 
   1.0786829 
    1.057288 
   1.0657592 
   1.0741433 
   1.0636289 
   1.0670139 
   1.0668917 
   1.0770543 
   1.0743564 
   1.0739522 
   1.0591853 
   1.0753741 
   1.0524011 
   1.0802509 
   1.0706491 
    1.058204 
   1.0756007 
    1.067722 
   1.0763019 
   1.0693621 
   1.0621029 
   1.0739269 
   1.0724259 
     1.07644 
   1.0742605 
   1.0713072 
   1.0612048 
   1.0723537 
   1.0719739 
   1.0552544 
   1.0734241 
    1.061854 
   1.0737292 
    1.063921 
   1.0560252 
   1.0659942 
   1.0825126 
   1.0819441 
   1.0791147 
   1.0748952 
   1.0707812 
   1.0602583 
   1.0832341 
   1.0581822 
   1.0637403 
     1.06146 
   1.0683599 
   1.0695199 
   1.0708375 
   1.0568635 
   1.0600491 
   1.0738096 
   1.0611482 
    1.081655 
   1.0645878 
   1.0584308 
   1.0642398 
   1.0752435 
   1.0738272 
   1.0646563 
   1.0802113 
   1.0600794 
   1.0695695 
    1.056057 
   1.0633011 
   1.0797796 
   1.0727703 
   1.0537504 
   1.0755371 
   1.0728053 
   1.0844502 
   1.0741541 
   1.0704634 
   1.0730093 
   1.0792923 
   1.0560314 
   1.0747744 
   1.0665493 
   1.0694504 
   1.0819378 
   1.0679251 
   1.0682395 
   1.0722993 
   1.0691339 
   1.0657365 
   1.0705545 
   1.0711319 
    1.069734 
   1.0567208 
   1.0510779 
   1.0737241 
    1.056788 
   1.0647137 
   1.0749026 
    1.058909 
    1.058181 
   1.0732251 
   1.0698063 
   1.0752655 
   1.0729675 
   1.0669901 
   1.0545028 
    1.072495 
   1.0676907 
   1.0704427 
   1.0743208 
    1.082262 
     1.06311 
    1.072701 
   1.0752212 
   1.0733768 
   1.0526706 
   1.0687388 
   1.0689373 
   1.0955855 
   1.0594539 
    1.051142 
   1.0582781 
    1.070716 
   1.0548007 
   1.0823561 
   1.0772394 
   1.0692906 
   1.0785924 
   1.0549158 
   1.0588248 
   1.0679598 
   1.0515023 
   1.0827418 
   1.0881954 
   1.0527332 
   1.0756747 
   1.0802549 
   1.0751325 
   1.0757647 
   1.0688497 
   1.0771141 
   1.0603268 
   1.0841557 
   1.0963425 
    1.080556 
    1.069468 
   1.0730288 
   1.0656926 
   1.0610118 
   1.0672397 
   1.0672567 
   1.0696997 
   1.0800355 
   1.0770986 
   1.0613507 
   1.0649221 
   1.0682381 
   1.0675682 
     1.06362 
   1.0681621 
   1.0715802 
   1.0473112 
   1.0700534 
    1.066672 
   1.0722698 
    1.068484 
   1.0831455 
   1.0735341 
   1.0753313 
    1.069597 
   1.0681206 
   1.0606354 
   1.0693418 
   1.0703622 
   1.0771936 
   1.0670057 
   1.0756016 
   1.0674458 
   1.0861871 
   1.0719913 
   1.0770401 
   1.0609069 
    1.069419 
   1.0668722 
   1.0646597 
   1.0663062 
   1.0948199 
   1.0736304 
   1.0718002 
   1.0588665 
   1.0667208 
   1.0632218 
   1.0837266 
   1.0689854 
   1.0840754 
   1.0596784 
   1.0733168 
   1.0632155 
   1.0733702 
   1.0598353 
   1.0661793 
   1.0870568 
   1.0640448 
   1.0667432 
   1.0719738 
   1.0702049 
   1.0676224 
   1.0618797 
   1.0638742 
   1.0612085 
   1.0854125 
   1.0845256 
   1.0596878 
   1.0620827 
   1.0679751 
   1.0746796 
   1.0707745 
   1.0861216 
   1.0638273 
   1.0508032 
   1.0621565 
   1.0649122 
   1.0749075 
   1.0721023 
   1.0898403 
   1.0646998 
    1.073987 
   1.0778345 
   1.0645385 
   1.0872621 
   1.0758837 
   1.0683181 
   1.0727584 
   1.0585269 
   1.0868084 
   1.0716901 
    1.056931 
   1.0739264 
   1.0711702 
    1.059563 
    1.052911 
   1.0678842 
   1.0792223 
   1.0758702 
   1.0735416 
   1.0634603 
   1.0632007 
   1.0689598 
   1.0670747 
    1.065833 
    1.081564 
   1.0745364 
   1.0825312 
   1.0668966 
   1.0752979 
   1.0799612 
   1.0487446 
   1.0594103 
   1.0763446 
   1.0638269 
   1.0912122 
   1.0788817 
   1.0847893 
   1.0667275 
   1.0726295 
    1.090786 
   1.0767896 
   1.0703818 
    1.080306 
   1.0743218 
   1.0848614 
   1.0602613 
   1.0676217 
   1.0656008 
    1.080968 
   1.0717588 
   1.0690328 
   1.0623434 
   1.0667338 
   1.0528138 
   1.0844231 
   1.0672092 
   1.0729515 
     1.07752 
   1.0743596 
   1.0706481 
    1.070288 
   1.0638637 
   1.0702751 
   1.0680325 
   1.0646871 
   1.0616265 
   1.0640844 
   1.0682308 
    1.087702 
   1.0731796 
   1.0769987 
   1.0829899 
   1.0688178 
   1.0728186 
   1.0671571 
   1.0699687 
   1.0726385 
   1.0803304 
   1.0782018 
   1.0702901 
   1.0763294 
    1.056251 
   1.0715733 
   1.0695808 
   1.0579891 
   1.0845585 
   1.0680357 
   1.0678335 
   1.0699856 
   1.0626672 
    1.078942 
   1.0750542 
   1.0678105 
   1.0680664 
   1.0663021 
   1.0690513 
    1.082349 
   1.0688831 
     1.07301 
   1.0670017 
   1.0672936 
   1.0811101 
   1.0671709 
   1.0686054 
   1.0629164 
   1.0813264 
   1.0697286 
   1.0782723 
   1.0733652 
   1.0663362 
   1.0703304 
    1.066071 
   1.0732071 
    1.065822 
   1.0622202 
   1.0775981 
   1.0695703 
   1.0686791 
   1.0840148 
   1.0790196 
   1.0775205 
   1.0709485 
   1.0688263 
   1.0489818 
   1.0641554 
    1.083256 
   1.0719522 
    1.087036 
   1.0551739 
   1.0606226 
   1.0616808 
   1.0638356 
   1.0698392 
   1.0797724 
   1.0832077 
   1.0770724 
   1.0645588 
   1.0734858 
   1.0723934 
   1.0694918 
    1.064103 
   1.0585084 
   1.0411745 
   1.0619447 
   1.0489791 
   1.0842849 
   1.0703324 
    1.080686 
     1.06762 
   1.0771278 
    1.066359 
   1.0795224 
   1.0662537 
   1.0569447 
   1.0694714 
   1.0527483 
    1.102561 
   1.0817776 
   1.0694353 
   1.0673658 
    1.064793 
   1.0791266 
   1.0753931 
   1.0687208 
   1.0786403 
   1.0741735 
   1.0678083 
   1.0721982 
    1.077677 
   1.0609118 
   1.0553371 
   1.0659589 
   1.0619891 
   1.0503536 
   1.0727065 
   1.0780534 
   1.0649439 
   1.0531941 
   1.0931538 
    1.085148 
    1.046505 
   1.0567772 
   1.0618484 
   1.0709562 
   1.0821461 
   1.0703475 
   1.0593475 
   1.0606177 
   1.0536359 
   1.0697753 
   1.0595129 
   1.0766316 
    1.054116 
   1.0598818 
   1.0677784 
   1.0701447 
   1.0809394 
   1.0758447 
   1.0758164 
    1.067775 
   1.0719716 
    1.076629 
    1.073712 
   1.0580681 
   1.0660066 
   1.0525728 
   1.0743787 
   1.0667242 
   1.0545094 
    1.085486 
   1.0754912 
   1.0696517 
   1.0746251 
   1.0808533 
   1.0776315 
   1.0758777 
   1.0632149 
   1.0840672 
   1.0629799 
   1.0630021 
   1.0736333 
   1.0742872 
Loop time of 5269.95 on 128 procs for 5000000 steps with 3072 atoms

Performance: 163.949 ns/day, 0.146 hours/ns, 948.776 timesteps/s
99.3% CPU use with 128 MPI tasks x no OpenMP threads

MPI task timing breakdown:
Section |  min time  |  avg time  |  max time  |%varavg| %total
---------------------------------------------------------------
Pair    | 1168.2     | 1405.2     | 1610.4     | 294.0 | 26.66
Bond    | 0.49732    | 0.58514    | 0.93934    |  10.7 |  0.01
Kspace  | 2138.3     | 2336.2     | 2548.4     | 222.4 | 44.33
Neigh   | 143.45     | 147.29     | 151.17     |  26.3 |  2.79
Comm    | 545.4      | 611.59     | 686.73     | 134.3 | 11.61
Output  | 0.018342   | 0.024227   | 0.040319   |   2.5 |  0.00
Modify  | 580.82     | 685.03     | 733.66     | 134.9 | 13.00
Other   |            | 84.06      |            |       |  1.60

Nlocal:    24 ave 32 max 16 min
Histogram: 3 6 8 24 12 32 27 10 4 2
Nghost:    2942.89 ave 2978 max 2892 min
Histogram: 1 3 4 17 17 20 25 20 15 6
Neighs:    9245.89 ave 12808 max 5237 min
Histogram: 2 4 11 21 20 22 18 21 4 5

Total # of neighbors = 1183474
Ave neighs/atom = 385.245
Ave special neighs/atom = 1.95312
Neighbor list builds = 437716
Dangerous builds = 0
reset_timestep 0

#################### 3) Initializing the NVT ensemble ####################
# scaling the size of the system to the average volume
variable sidesize equal (f_VoluAve^(1.0/3.0))    # get the volume
variable xlow equal xlo
variable ylow equal ylo
variable zlow equal zlo
variable xhig equal (xlo+${sidesize})
variable xhig equal (xlo+31.4913895467019)
variable yhig equal (ylo+${sidesize})
variable yhig equal (ylo+31.4913895467019)
variable zhig equal (zlo+${sidesize})
variable zhig equal (zlo+31.4913895467019)
change_box all x final ${xlow} ${xhig} y final ${ylow} ${yhig} z final ${zlow} ${zhig}
change_box all x final 0.725168747678794 ${xhig} y final ${ylow} ${yhig} z final ${zlow} ${zhig}
change_box all x final 0.725168747678794 32.2165582943807 y final ${ylow} ${yhig} z final ${zlow} ${zhig}
change_box all x final 0.725168747678794 32.2165582943807 y final 0.725168747678794 ${yhig} z final ${zlow} ${zhig}
change_box all x final 0.725168747678794 32.2165582943807 y final 0.725168747678794 32.2165582943807 z final ${zlow} ${zhig}
change_box all x final 0.725168747678794 32.2165582943807 y final 0.725168747678794 32.2165582943807 z final 0.725168747678794 ${zhig}
change_box all x final 0.725168747678794 32.2165582943807 y final 0.725168747678794 32.2165582943807 z final 0.725168747678794 32.2165582943807
  orthogonal box = (0.725169 0.725169 0.725169) to (32.2166 32.1722 32.1722)
  orthogonal box = (0.725169 0.725169 0.725169) to (32.2166 32.2166 32.1722)
  orthogonal box = (0.725169 0.725169 0.725169) to (32.2166 32.2166 32.2166)
unfix DensAve
unfix VoluAve

# changing the ensemble to NVT
unfix integrate
fix integrate all nvt temp ${Temp} ${Temp} 100.0
fix integrate all nvt temp 298 ${Temp} 100.0
fix integrate all nvt temp 298 298 100.0


# Initializing the whole system with very small timesteps in the NVT ensemble
timestep 0.001
run ${Ninvtpre}
run 10000
PPPM initialization ...
  extracting TIP4P info from pair style
  using 12-bit tables for long-range coulomb (../kspace.cpp:321)
  G vector (1/distance) = 0.311645
  grid = 30 30 30
  stencil order = 5
  estimated absolute RMS force accuracy = 0.00348352
  estimated relative force accuracy = 1.04905e-05
  using double precision FFTs
  3d grid and FFT values/proc = 2475 256
Per MPI rank memory allocation (min/avg/max) = 8.201 | 8.212 | 8.219 Mbytes
Density 
   1.0697553 
   1.0697553 
Loop time of 7.52939 on 128 procs for 10000 steps with 3072 atoms

Performance: 0.115 ns/day, 209.150 hours/ns, 1328.128 timesteps/s
99.4% CPU use with 128 MPI tasks x no OpenMP threads

MPI task timing breakdown:
Section |  min time  |  avg time  |  max time  |%varavg| %total
---------------------------------------------------------------
Pair    | 1.2175     | 2.0859     | 2.8405     |  24.5 | 27.70
Bond    | 0.00068116 | 0.00082876 | 0.0013914  |   0.0 |  0.01
Kspace  | 2.8303     | 3.5685     | 4.413      |  18.3 | 47.39
Neigh   | 0          | 0          | 0          |   0.0 |  0.00
Comm    | 0.97743    | 1.0681     | 1.1429     |   3.7 | 14.19
Output  | 2.147e-05  | 2.9612e-05 | 6.5733e-05 |   0.0 |  0.00
Modify  | 0.62557    | 0.69667    | 0.75006    |   3.7 |  9.25
Other   |            | 0.1093     |            |       |  1.45

Nlocal:    24 ave 31 max 17 min
Histogram: 7 4 19 9 17 25 15 25 5 2
Nghost:    2932.35 ave 2962 max 2891 min
Histogram: 2 1 7 16 17 19 26 24 9 7
Neighs:    9212.46 ave 12292 max 5685 min
Histogram: 1 8 11 15 22 22 12 21 10 6

Total # of neighbors = 1179195
Ave neighs/atom = 383.853
Ave special neighs/atom = 1.95312
Neighbor list builds = 0
Dangerous builds = 0
timestep 0.01
run ${Ninvtpre}
run 10000
PPPM initialization ...
  extracting TIP4P info from pair style
  using 12-bit tables for long-range coulomb (../kspace.cpp:321)
  G vector (1/distance) = 0.311645
  grid = 30 30 30
  stencil order = 5
  estimated absolute RMS force accuracy = 0.00348352
  estimated relative force accuracy = 1.04905e-05
  using double precision FFTs
  3d grid and FFT values/proc = 2475 256
Per MPI rank memory allocation (min/avg/max) = 8.201 | 8.212 | 8.219 Mbytes
Density 
   1.0697553 
   1.0697553 
Loop time of 7.8895 on 128 procs for 10000 steps with 3072 atoms

Performance: 1.095 ns/day, 21.915 hours/ns, 1267.507 timesteps/s
99.4% CPU use with 128 MPI tasks x no OpenMP threads

MPI task timing breakdown:
Section |  min time  |  avg time  |  max time  |%varavg| %total
---------------------------------------------------------------
Pair    | 1.2265     | 2.0885     | 3.0703     |  24.8 | 26.47
Bond    | 0.00068865 | 0.00082511 | 0.0013541  |   0.0 |  0.01
Kspace  | 2.9451     | 3.9065     | 4.7434     |  17.7 | 49.51
Neigh   | 0.0011904  | 0.001226   | 0.0012536  |   0.0 |  0.02
Comm    | 0.98113    | 1.0748     | 1.1623     |   3.6 | 13.62
Output  | 2.5688e-05 | 3.559e-05  | 8.8936e-05 |   0.0 |  0.00
Modify  | 0.63473    | 0.70427    | 0.75991    |   3.6 |  8.93
Other   |            | 0.1133     |            |       |  1.44

Nlocal:    24 ave 32 max 17 min
Histogram: 3 8 20 17 21 15 28 4 7 5
Nghost:    2937 ave 2969 max 2912 min
Histogram: 6 14 21 20 22 9 17 9 9 1
Neighs:    9208.93 ave 12934 max 5984 min
Histogram: 5 10 17 15 26 24 9 13 6 3

Total # of neighbors = 1178743
Ave neighs/atom = 383.705
Ave special neighs/atom = 1.95312
Neighbor list builds = 4
Dangerous builds = 0
timestep 0.1
run ${Ninvtpre}
run 10000
PPPM initialization ...
  extracting TIP4P info from pair style
  using 12-bit tables for long-range coulomb (../kspace.cpp:321)
  G vector (1/distance) = 0.311645
  grid = 30 30 30
  stencil order = 5
  estimated absolute RMS force accuracy = 0.00348352
  estimated relative force accuracy = 1.04905e-05
  using double precision FFTs
  3d grid and FFT values/proc = 2475 256
Per MPI rank memory allocation (min/avg/max) = 8.201 | 8.212 | 8.219 Mbytes
Density 
   1.0697553 
   1.0697553 
Loop time of 8.16613 on 128 procs for 10000 steps with 3072 atoms

Performance: 10.580 ns/day, 2.268 hours/ns, 1224.571 timesteps/s
99.4% CPU use with 128 MPI tasks x no OpenMP threads

MPI task timing breakdown:
Section |  min time  |  avg time  |  max time  |%varavg| %total
---------------------------------------------------------------
Pair    | 1.4456     | 2.0984     | 2.8514     |  19.6 | 25.70
Bond    | 0.00068779 | 0.0008246  | 0.001312   |   0.0 |  0.01
Kspace  | 3.3548     | 4.1094     | 4.7449     |  13.8 | 50.32
Neigh   | 0.015558   | 0.017487   | 0.017806   |   0.4 |  0.21
[...]
98160000    294.53013    298.37044   -746.17499   -12.926021   -15773.858    1818.2104   -13955.648 
98170000    295.91991    297.77647   -307.02867    23.417792   -15799.355    1826.7899   -13972.565 
98180000    301.15176    297.95865     125.5885    39.529312   -15842.067    1859.0874   -13982.979 
98190000    302.49285    298.31613   -63.915388   -21.402525   -15796.934    1867.3663   -13929.567 
98200000    299.77095    298.24033   -515.81548    11.726992   -15852.323    1850.5633    -14001.76 
98210000    308.68804     297.8292    466.31858   -123.17489   -15814.476    1905.6108   -13908.866 
98220000    293.86833    298.70482    349.14607  -0.12420703   -15788.129    1814.1249   -13974.004 
98230000    302.20867    298.31023   -391.39356  -0.43516794   -15690.211     1865.612   -13824.599 
98240000    303.18515    298.26288    697.56984    3.1761367   -15761.728      1871.64   -13890.088 
98250000    290.03584    298.42167   -134.15439    75.167736   -15846.715    1790.4659   -14056.249 
98260000    301.99733    298.21578     97.41191   -59.398177   -15687.006    1864.3073   -13822.699 
98270000       302.78    298.12353    248.03096     41.52861   -15758.453     1869.139   -13889.314 
98280000    300.60967    297.91427    150.74926   -44.290224   -15820.118    1855.7409   -13964.377 
98290000    294.80406    298.50567   -262.73902     14.20176   -15737.067    1819.9014   -13917.166 
98300000    301.21457    297.93706    393.43439    59.036851   -15834.885    1859.4751    -13975.41 
98310000    303.50416    297.87384    274.09502  -0.77096581   -15766.701    1873.6094   -13893.092 
98320000    303.02953    298.29179   -466.47593   -51.630811    -15721.89    1870.6793   -13851.211 
98330000    296.62048    297.63384   -126.25552    57.361462   -15749.193    1831.1146   -13918.079 
98340000    299.89506     298.2853    6.7838853    34.731408   -15800.037    1851.3295   -13948.708 
98350000    290.34635    297.98887    38.771548    32.308894   -15866.045    1792.3828   -14073.662 
98360000    294.80641    298.12094   -259.46466    -4.359256   -15765.678    1819.9159   -13945.762 
98370000    301.94714    298.08111    186.20374   -5.8771591   -15828.933    1863.9975   -13964.935 
98380000    304.21485    298.19356   -268.49556   -49.568309   -15714.623    1877.9966   -13836.626 
98390000    285.46611     298.2043    594.31631    -79.37453   -15760.905    1762.2558   -13998.649 
98400000    290.87458    298.50198   -404.91317    9.1288471    -15774.89    1795.6437   -13979.247 
98410000    293.29948     298.0285    361.73136    27.170722   -15814.886    1810.6132   -14004.272 
98420000     298.9782    298.22861   -28.468935   -44.910627   -15732.324    1845.6694   -13886.654 
98430000    290.90251    297.82379   -152.29673   -47.703104   -15761.454    1795.8162   -13965.637 
98440000    295.37135     298.2885     1035.565   -27.984447   -15834.798    1823.4034   -14011.395 
98450000    304.90445    297.72415   -14.757346    141.23192   -15741.264    1882.2537   -13859.011 
98460000    300.09648    298.01922    109.38981    35.306977   -15841.704    1852.5729   -13989.132 
98470000    300.60194     297.6369   -240.74373   -9.7992404    -15747.84    1855.6932   -13892.147 
98480000      300.405    298.53551    182.44133    7.5996099   -15794.851    1854.4774   -13940.374 
98490000    296.08077    298.16853    303.30145    2.6034006   -15770.877    1827.7828   -13943.094 
98500000    294.75977    297.95187   -189.32116    68.178932   -15830.725     1819.628   -14011.097 
98510000    296.34414    297.72062    144.27739   -15.990721   -15812.288    1829.4087    -13982.88 
98520000     299.8697    298.22346    49.760203   -27.493807   -15739.844    1851.1729   -13888.671 
98530000    300.29704    297.55649    -344.3774    16.960463   -15893.481     1853.811    -14039.67 
98540000    300.19118    297.78673   -628.85684    -50.26208   -15754.473    1853.1575   -13901.316 
98550000    289.97983    297.76136   -362.94895   -10.737196   -15747.521    1790.1202   -13957.401 
98560000    290.53652    297.97913   -650.13396   -58.803216   -15787.549    1793.5568   -13993.993 
98570000    299.34626    298.11358    458.38515   -82.155567   -15784.281    1847.9416   -13936.339 
98580000    293.72342    298.05369    45.398613    97.308385    -15728.32    1813.2303    -13915.09 
98590000    295.70301    297.88944    220.43658    20.909197   -15833.699    1825.4508   -14008.248 
98600000    293.02871    298.33308    476.59801    25.948625   -15729.397    1808.9417   -13920.455 
98610000    304.67496    297.78757    672.60155   -10.300019   -15819.163     1880.837   -13938.326 
98620000    300.26675      297.658   -103.92441   -72.653184   -15801.246     1853.624   -13947.622 
98630000      290.825    298.06394    -716.3002    57.430091   -15717.399    1795.3376   -13922.062 
98640000    310.46705     298.0712    227.60772   -10.818614   -15865.586    1916.5931   -13948.993 
98650000    293.68765    298.21891     138.1655   -56.570561   -15867.232    1813.0095   -14054.223 
98660000    306.06179    297.67484   -141.75096     26.59954   -15777.436    1889.3983   -13888.038 
98670000    300.55942    297.68986   -191.78599    16.578227   -15788.531    1855.4307     -13933.1 
98680000    292.11307    297.99381    336.26911   -30.339903   -15777.817    1803.2893   -13974.528 
98690000    307.47092    297.66667   -16.570972   -101.15106   -15846.283    1898.0972   -13948.186 
98700000    292.64812    297.58978    329.23867    38.871666   -15725.012    1806.5922   -13918.419 
98710000    302.95554    298.01837    190.85753    39.558048   -15850.767    1870.2226   -13980.544 
98720000    293.94343    298.08551   -277.00008    71.476173    -15816.18    1814.5885   -14001.592 
98730000    298.61651    298.08653   -152.18816   -5.7408238   -15760.445    1843.4366   -13917.008 
98740000    299.98146    298.14684   -114.77589   -31.774213   -15842.274    1851.8629   -13990.411 
98750000    310.17501    297.70826   -417.09682   -57.370183   -15706.197    1914.7902   -13791.407 
98760000    298.65482    297.55563    -456.3746   -79.836283   -15892.842    1843.6731   -14049.169 
98770000     294.6085     297.6979   -337.44845   -8.1203705   -15772.351    1818.6942   -13953.657 
98780000    292.18459    297.84483   -31.361858     15.37726    -15772.22    1803.7307   -13968.489 
98790000    298.06705    297.74907    346.81632     16.26793   -15785.294    1840.0447   -13945.249 
98800000    299.01857    298.32669     580.8013    48.466442   -15805.538    1845.9187   -13959.619 
98810000    298.72993    298.18836   -783.79335     81.37658   -15862.234    1844.1368   -14018.098 
98820000    300.45357    297.92232    177.70542   0.88328747   -15876.244    1854.7773   -14021.467 
98830000    309.35201    298.11314    744.60128    30.792192   -15814.195    1909.7096   -13904.485 
98840000    302.79127    297.70759    40.493199   -23.975362   -15703.749    1869.2085    -13834.54 
98850000    296.61282    297.95677   -3.1994649    57.944702   -15813.188    1831.0673   -13982.121 
98860000    295.51493    298.31965    466.83619    -2.150402   -15742.454    1824.2898   -13918.164 
98870000    305.94102    298.17834    -61.91368   -46.430618   -15767.417    1888.6527   -13878.764 
98880000    293.32415     297.9341   -386.85066   -49.786976   -15881.513    1810.7656   -14070.747 
98890000    303.06651    298.31511     27.76174   -21.396462   -15783.544    1870.9076   -13912.637 
98900000     300.1132    298.25302   -178.05107    9.9798063   -15827.897    1852.6761   -13975.221 
98910000    299.28876    297.75964   -122.66503   -56.464172   -15789.663    1847.5866   -13942.077 
98920000    297.09361    297.70225    427.83498   -7.8903009   -15721.805    1834.0354    -13887.77 
98930000    294.94163    297.66346   -123.96667   -119.69858   -15820.397    1820.7506   -13999.646 
98940000    298.75913    297.76392    66.376342    -64.36851   -15761.051     1844.317   -13916.734 
98950000    301.18911    297.73418    382.74199   -56.381234   -15734.802     1859.318   -13875.484 
98960000    298.90352    298.05044    401.28406    7.6244573   -15840.848    1845.2084   -13995.639 
98970000    306.65656    297.83655   -653.71284   -110.14958   -15777.128    1893.0699   -13884.058 
98980000    298.39518    298.41263   -285.11534   -58.769907   -15860.635    1842.0703   -14018.564 
98990000    300.78774    298.12125    839.84139     5.204234   -15784.007    1856.8402   -13927.167 
99000000    298.02657    297.43385   -71.453379    109.04289   -15757.746    1839.7948   -13917.951 
99010000    310.72967    297.86631   -1179.3031   -24.645107   -15842.702    1918.2143   -13924.488 
99020000    296.96874    297.77802    451.18003     5.257051   -15868.629    1833.2645   -14035.365 
99030000    290.49529    297.81717    235.97157   -102.51947   -15786.377    1793.3022   -13993.074 
99040000    299.38549     298.4068    129.38795    45.850214   -15703.014    1848.1838    -13854.83 
99050000    301.80572    297.66511    28.418559   -13.427757   -15753.899    1863.1245   -13890.775 
99060000    300.66888    297.44592   -47.639825    50.082855   -15874.492    1856.1065   -14018.385 
99070000    295.99835    297.90953    275.25673    83.634159   -15734.386     1827.274   -13907.112 
99080000    298.09669    298.28373    206.10246   -83.993963   -15807.867    1840.2276   -13967.639 
99090000    303.54439    298.35108   -127.80817   -24.098379   -15816.779    1873.8577   -13942.921 
99100000     302.9205    298.07217    66.871162    61.175015   -15816.096    1870.0063    -13946.09 
99110000    300.03777    297.99361    101.24326   -35.651496   -15725.457    1852.2105   -13873.247 
99120000    300.44864    298.34852    517.41004    134.60571   -15749.226    1854.7469   -13894.479 
99130000    298.00088    298.58208    804.33311    12.710447   -15788.174    1839.6362   -13948.538 
99140000    297.76452    298.34707   -414.33259    43.844808   -15748.924    1838.1771   -13910.747 
99150000      297.028    297.92131    189.10785   -72.338421   -15752.345    1833.6303   -13918.715 
99160000    297.42626    298.10112     615.7515    -2.613601   -15711.852    1836.0889   -13875.763 
99170000    290.40688    298.34236   -336.57507   -4.0882983   -15747.416    1792.7565   -13954.659 
99180000     303.2169    297.58129    1090.5377   -31.834586   -15725.844    1871.8361   -13854.008 
99190000    292.61331    297.89461   -417.36219   -56.961598   -15721.355    1806.3773   -13914.978 
99200000    300.64656    297.85733   -257.95889    32.638766   -15745.937    1855.9687   -13889.968 
99210000    305.84579     297.7856     8.576117    67.583543   -15745.153    1888.0649   -13857.088 
99220000    300.65695    298.19256    257.09488    -91.00558   -15705.607    1856.0328   -13849.574 
99230000    297.84615    298.31256   -331.35539   -22.782887    -15782.41     1838.681   -13943.729 
99240000    295.22904    297.46728    63.269736   -106.80094   -15822.764    1822.5249   -14000.239 
99250000    287.13228    297.68926   -491.53241   -31.403289   -15747.552    1772.5415    -13975.01 
99260000    301.26287    297.94903   -260.00884    9.6401724   -15812.402    1859.7733   -13952.629 
99270000    297.35877    297.76692   -682.82452    83.439739   -15682.963    1835.6723   -13847.291 
99280000    307.31033    297.82993    881.08544  -0.20491494   -15703.319    1897.1059   -13806.214 
99290000    293.33733    298.28064     217.2599     26.64918   -15812.133    1810.8469   -14001.286 
99300000    305.11898    297.98586    208.04265    -51.81858   -15712.625    1883.5781   -13829.047 
99310000    291.70878    298.05584   -764.32686    30.265657   -15834.728    1800.7934   -14033.934 
99320000    298.95388    297.64331   -100.27918   -87.967434   -15768.557    1845.5193   -13923.038 
99330000    292.38625    298.02042   -173.74139    -104.8684   -15869.409    1804.9756   -14064.433 
99340000    300.67269    297.84494   -50.478956   -4.5496434   -15802.891      1856.13   -13946.761 
99350000     307.4261    298.48032    534.30375    13.302104   -15876.362    1897.8205   -13978.541 
99360000    299.81276    298.03913    201.71833    47.735215    -15758.97    1850.8214   -13908.148 
99370000    295.09836    297.76416   -676.62861    19.788285   -15611.537    1821.7182   -13789.819 
99380000    304.77283      298.201    -459.9908   -57.340611   -15780.132    1881.4412   -13898.691 
99390000    301.85021    298.23907    25.437912    34.978812   -15729.761    1863.3991   -13866.362 
99400000    303.52851     298.1064    59.096893    31.074867   -15762.748    1873.7597   -13888.988 
99410000    290.62299    298.31342    472.07312   -25.427038   -15825.569    1794.0906   -14031.478 
99420000    303.41976    298.48426    1078.6008    61.156978   -15778.861    1873.0883   -13905.772 
99430000    295.44489    298.30533   -227.20324   -80.394998   -15768.728    1823.8574   -13944.871 
99440000    294.83233    297.98594   -305.69565   -67.192401   -15702.789    1820.0759   -13882.713 
99450000    311.80604     297.9935     63.93762   -81.503056    -15827.75     1924.859   -13902.891 
99460000    299.42298    297.79419    474.00507   -35.782825   -15882.671    1848.4152   -14034.255 
99470000    299.41013    297.50161   -621.36986   -51.937051   -15780.751    1848.3359   -13932.415 
99480000    301.85037    298.26638   -72.281554   -74.183609   -15773.112    1863.4001   -13909.712 
99490000    300.98066     297.4141   -385.47296   -139.83179   -15779.871    1858.0312    -13921.84 
99500000    298.04978    297.92172    216.53066    82.615236   -15760.689    1839.9381   -13920.751 
99510000    290.98667    297.61385    377.29569   -11.658498   -15712.075    1796.3356    -13915.74 
99520000    292.58379    298.07509    97.548527    19.436149    -15764.35    1806.1951   -13958.155 
99530000    294.70199    297.55483    202.77415   -71.393488    -15765.87    1819.2713   -13946.599 
99540000    296.94898     298.8982   -325.89883     29.21141    -15705.72    1833.1426   -13872.577 
99550000    296.81242    298.46468   -15.498149   -1.4629187   -15696.787    1832.2995   -13864.487 
99560000    304.56117    298.05576    339.65488   -4.1841401   -15761.203    1880.1346   -13881.068 
99570000    302.05783    298.09043    26.641161   -33.170418   -15749.815    1864.6808   -13885.134 
99580000    293.56424    298.15653    298.55043    -26.67747   -15707.615    1812.2477   -13895.367 
99590000    303.77456     297.6989   -181.39723     30.21446   -15716.735    1875.2786   -13841.457 
99600000    291.96793    298.21622   -404.13174   -17.522647   -15734.342    1802.3932   -13931.949 
99610000    300.79393    298.22761   -7.5081194   -47.206939   -15828.313    1856.8784   -13971.434 
99620000    307.64078    297.94134    100.64974    84.095591    -15864.44    1899.1458   -13965.294 
99630000    296.47109    297.99327   -665.50303    32.236048   -15773.225    1830.1924   -13943.033 
99640000    291.15284     297.6157    123.81413    7.7529244   -15825.414    1797.3615   -14028.052 
99650000    307.15392    297.95995    141.76055    -34.18916   -15726.842    1896.1403   -13830.701 
99660000    294.68939    298.08119    221.29224    37.312768   -15757.184    1819.1935    -13937.99 
99670000    295.83494     298.4571    217.84504   -12.363925   -15816.732    1826.2653   -13990.466 
99680000    292.96427     298.2848    243.25125   -15.263085   -15816.595    1808.5439   -14008.051 
99690000    285.74458    298.11617    21.534595    64.347158   -15801.047    1763.9749   -14037.072 
99700000     303.1501    297.65364    1116.2497   -13.139151   -15706.441    1871.4237   -13835.018 
99710000    290.66424    298.34231    -1014.672    24.111273   -15823.437    1794.3453   -14029.092 
99720000    294.98787    298.26842   -150.04112   -14.849932   -15769.411    1821.0361   -13948.375 
99730000    297.77236    297.75012   -127.95266    27.173644    -15755.81    1838.2255   -13917.585 
99740000     297.8897    298.23708    29.120564    32.047783   -15794.681    1838.9498   -13955.731 
99750000    291.71143    297.94178   -463.60473    24.937439   -15722.178    1800.8098   -13921.368 
99760000    299.53974     298.1932   -237.34945   -23.075762   -15795.081     1849.136   -13945.945 
99770000    303.94879    297.61177    625.19268    77.170546   -15779.358    1876.3542   -13903.004 
99780000     297.9283    297.59624    245.32912    34.003462   -15783.685    1839.1881   -13944.497 
99790000     305.4559    297.94803    85.679865    45.982768   -15763.149    1885.6579   -13877.491 
99800000    291.63224    297.93223    730.65984    23.737399   -15741.597    1800.3209   -13941.276 
99810000    302.89775    297.67219   -448.02043  -0.80906079    -15795.93    1869.8658   -13926.064 
99820000    291.92628     297.5193   -392.45329   -66.592652   -15805.908    1802.1361   -14003.772 
99830000    290.61056    298.44954    327.18358    30.087609   -15783.755    1794.0139   -13989.741 
99840000    292.17291    298.45442    47.166074     59.85337   -15698.506    1803.6587   -13894.848 
99850000    294.83396    298.58823   -618.03752    29.466594   -15889.198     1820.086   -14069.112 
99860000    295.15809    297.83757    371.50814    9.9552262   -15693.339    1822.0869   -13871.252 
99870000     299.0118     297.8959    140.83818     10.78589   -15832.518    1845.8769   -13986.641 
99880000    297.20915    297.98337   -511.92804   -65.377729    -15795.25    1834.7486   -13960.501 
99890000    297.00397    298.44406     432.8643   -52.504068   -15816.539     1833.482   -13983.057 
99900000    309.58476     298.4932   -156.48812    -12.69367   -15812.369    1911.1465   -13901.222 
99910000    299.92763    297.77024   -119.96197   -87.671041   -15748.414    1851.5305   -13896.884 
99920000     286.2615     297.3835   -664.58173    6.2105494   -15726.506     1767.166    -13959.34 
99930000    304.58043    297.78866    136.36789   -21.678878   -15789.056    1880.2535   -13908.802 
99940000     298.1451    297.94457   -56.548209   -91.223427   -15836.683    1840.5265   -13996.156 
99950000     296.1946    298.31309    427.70629   -35.254119   -15684.764    1828.4856   -13856.279 
99960000    293.52352    297.37767   -1007.4222   -17.292953   -15796.559    1811.9963   -13984.562 
99970000    296.35521    297.79672   -250.79518     18.23918   -15765.397    1829.4771    -13935.92 
99980000    296.71394    298.43497   -730.24641   -48.382817   -15822.024    1831.6916   -13990.332 
99990000    297.87696    298.18631    204.01661    25.241561   -15849.013    1838.8712   -14010.141 
100000000    283.04317    297.78713   -408.00575   -61.076919   -15770.529    1747.2984   -14023.231 
Loop time of 92170.8 on 128 procs for 100000000 steps with 3072 atoms

Performance: 187.478 ns/day, 0.128 hours/ns, 1084.942 timesteps/s
99.4% CPU use with 128 MPI tasks x no OpenMP threads

MPI task timing breakdown:
Section |  min time  |  avg time  |  max time  |%varavg| %total
---------------------------------------------------------------
Pair    | 19837      | 23471      | 26622      |1151.1 | 25.46
Bond    | 8.4124     | 9.7113     | 15.74      |  33.3 |  0.01
Kspace  | 38976      | 42272      | 45869      | 864.1 | 45.86
Neigh   | 2911.5     | 2931.1     | 2950.6     |  20.0 |  3.18
Comm    | 11547      | 12377      | 13048      | 337.4 | 13.43
Output  | 3.9149     | 86.047     | 101.39     | 169.1 |  0.09
Modify  | 8957.1     | 9516.3     | 10101      | 319.5 | 10.32
Other   |            | 1508       |            |       |  1.64

Nlocal:    24 ave 34 max 16 min
Histogram: 5 3 20 37 8 27 14 9 3 2
Nghost:    2941.12 ave 2968 max 2898 min
Histogram: 2 4 3 5 14 20 35 23 13 9
Neighs:    9208.02 ave 13320 max 5251 min
Histogram: 5 3 7 27 27 23 16 12 4 4

Total # of neighbors = 1178627
Ave neighs/atom = 383.668
Ave special neighs/atom = 1.95312
Neighbor list builds = 8670298
Dangerous builds = 0

quit
