3072
Atoms. Timestep: 0
O 5.16435 7.63849 29.2138
H 4.90289 6.83362 28.7666
H 4.94082 8.33782 28.5997
O 15.0938 4.63341 4.85205
H 15.3081 5.35609 5.44201
H 15.2765 3.8446 5.36256
O 5.08108 19.8813 26.5648
H 4.68806 19.0091 26.5962
H 5.56711 19.9553 27.3861
O 4.70534 2.42584 31.0449
H 5.43109 3.02996 31.2016
H 3.96368 2.81675 31.5068
O 28.6571 14.1983 13.0294
H 29.5932 14.3304 12.8793
H 28.417 14.8774 13.6598
O 26.9318 2.56354 10.298
H 26.567 2.16069 9.51005
H 27.8343 2.24673 10.3338
O 20.3904 17.7007 21.0713
H 20.9328 18.37 21.4886
H 21.0049 17.0046 20.8386
O 23.2978 19.4092 7.55314
H 23.9134 18.7932 7.95029
H 23.582 20.2679 7.86624
O 23.0168 27.9923 18.8046
H 22.4425 27.2508 18.9961
H 23.7158 27.6215 18.266
O 4.32541 21.5483 24.6356
H 4.24903 22.4469 24.9563
H 4.58372 21.0402 25.4046
O 2.17868 32.16 18.8593
H 2.57295 1.18954 19.5588
H 1.24877 32.1223 19.083
O 18.861 32.1056 30.1844
H 18.7653 1.25167 30.8919
H 19.6914 0.842386 29.7665
O 24.6254 12.9784 26.3591
H 25.0198 13.8311 26.1755
H 23.9073 12.9057 25.7304
O 24.0435 1.29688 1.84759
H 23.4385 0.978198 1.17775
H 24.7064 32.1014 1.9186
O 28.9468 28.839 28.2949
H 28.9425 29.046 27.3603
H 29.2902 29.6282 28.7138
O 21.9822 20.3097 26.2501
H 21.7892 21.2251 26.0475
H 21.1233 19.9029 26.3641
O 6.94614 31.3512 13.4659
H 6.30189 31.7862 14.0244
H 7.2141 30.5795 13.9648
O 19.8685 3.91536 26.7392
H 18.9808 3.705 26.4494
H 19.777 4.10822 27.6723
O 7.40551 30.6281 20.352
H 8.18621 30.1753 20.0331
H 6.98482 29.9981 20.9371
O 26.1263 23.3655 3.11655
H 25.568 24.0915 3.39506
H 25.9694 22.6795 3.76536
O 19.5874 31.1478 13.028
H 19.4015 30.2474 12.7617
H 20.0838 31.5165 12.2974
O 2.4351 23.922 30.7433
H 3.16154 23.9022 30.1203
H 1.6663 24.1218 30.2092
O 2.18534 26.9696 8.25112
H 1.87831 26.1154 8.55515
H 2.97453 27.1381 8.76591
O 25.5154 22.4298 31.2691
H 25.9389 23.1469 31.741
H 25.1824 22.8334 30.4676
O 23.4158 25.6685 3.44472
H 22.9957 24.866 3.75401
H 22.6955 26.2032 3.11092
O 27.4339 14.4891 19.1417
H 27.1318 14.2522 20.0185
H 27.8844 13.7068 18.8235
O 23.3431 22.2729 13.1531
H 24.1377 22.1084 13.6607
H 23.1919 21.4586 12.6732
O 17.6783 31.3564 8.06655
H 17.5285 30.5943 8.62599
H 17.5166 31.0378 7.17855
O 5.21391 27.4093 12.9389
H 4.45053 27.2369 13.49
H 5.6897 26.5789 12.9213
O 21.4563 31.5032 26.3023
H 20.5097 31.456 26.4367
H 21.6039 0.885455 25.9401
O 31.3374 23.3964 16.3539
H 31.9418 22.6552 16.3156
H 31.5985 23.8787 17.1385
O 11.2626 22.2327 22.0034
H 10.6404 21.5715 22.3068
H 10.778 23.0569 22.0489
O 3.44164 8.80983 2.5025
H 2.58209 8.4193 2.66027
H 3.41873 9.07729 1.58371
O 14.9752 18.4283 2.38426
H 15.302 18.6639 1.51598
H 14.8901 19.2639 2.84346
O 9.42457 25.2474 16.4858
H 8.85059 25.9128 16.8654
H 9.035 25.0524 15.6335
O 24.5843 13.8753 9.41149
H 24.9162 14.761 9.26479
H 25.1484 13.5182 10.0974
O 12.7235 11.9097 16.4178
H 12.3003 11.3599 17.0772
H 12.165 12.6847 16.3573
O 1.22241 8.35969 9.48391
H 1.68026 8.93046 8.8668
H 1.64783 7.50805 9.38411
O 14.3523 9.83484 25.1359
H 15.0031 9.16234 25.337
H 13.6651 9.36892 24.6595
O 11.1851 16.1647 24.3466
H 10.486 16.2231 24.9978
H 11.0375 16.9129 23.7682
O 18.5869 4.31707 31.5888
H 18.8349 5.13319 32.0231
H 19.2296 4.2139 30.8869
O 11.4733 5.3877 17.4718
H 12.2232 5.3403 16.8788
H 11.8609 5.42321 18.3464
O 15.9691 25.7834 3.14902
H 16.1401 25.6036 2.22451
H 15.3229 26.4895 3.14074
O 20.2763 15.9422 30.6849
H 20.3407 15.1253 30.1902
H 20.5833 15.716 31.5629
O 13.455 21.2164 12.5029
H 12.5454 21.0731 12.7642
H 13.4162 21.953 11.8928
O 18.8085 22.1581 6.53055
H 18.1037 22.4237 5.93981
H 18.3589 21.8508 7.3177
O 11.7392 29.9766 10.7828
H 12.1874 29.2231 11.167
H 12.4425 30.5135 10.4175
O 19.3282 17.8583 15.7421
H 19.1617 18.2525 14.8859
H 18.8533 18.4151 16.3591
O 26.1526 29.8367 27.1445
H 25.5056 30.5335 27.2546
H 26.1994 29.4148 28.0025
O 30.8747 12.2087 22.3535
H 30.6749 13.0259 21.8968
H 30.0188 11.8267 22.5475
O 7.52427 25.4783 12.2
H 7.26432 24.8896 11.4914
H 8.09341 26.123 11.7797
O 31.5547 15.461 27.5323
H 0.838007 16.0225 27.561
H 31.1797 15.6136 26.6649
O 1.92456 27.7243 5.17783
H 1.98033 26.8778 5.62106
H 2.0053 27.5139 4.24754
O 12.3508 5.17042 20.1409
H 12.8651 5.62159 20.8104
H 11.9019 4.47015 20.6146
O 7.51275 7.36936 24.2276
H 7.76977 8.17426 23.7778
H 7.74477 7.52177 25.1436
O 16.8987 13.8615 29.6667
H 17.8247 13.6329 29.5861
H 16.7617 13.98 30.6067
O 11.2921 27.2298 9.3854
H 10.9334 27.9733 8.90087
H 11.7618 26.7182 8.72672
O 31.7935 24.4924 29.3225
H 31.2634 23.7174 29.1364
H 0.848195 24.6022 28.544
O 19.2773 24.9163 17.3299
H 19.7734 25.2418 16.5789
H 18.3657 25.122 17.1227
O 15.3227 30.9204 22.306
H 15.8231 30.1112 22.4115
H 14.7758 30.9683 23.0901
O 26.8554 4.94223 23.9681
H 26.5067 4.08626 23.7193
H 27.2685 5.27404 23.171
O 7.72365 8.97538 10.6518
H 8.65265 8.81101 10.8136
H 7.32357 8.10582 10.6457
O 20.5725 4.61126 29.5329
H 21.0098 5.39727 29.2055
H 21.2853 4.04822 29.8348
O 0.833142 8.19027 31.689
H 32.1906 7.82523 1.07225
H 32.0428 9.102 31.7637
O 18.036 27.214 30.7267
H 18.1352 28.1207 31.0168
H 18.915 26.8417 30.7977
O 1.4127 29.9858 8.90471
H 1.59676 30.8551 9.26051
H 1.64442 29.3832 9.61144
O 30.7556 19.659 14.7
H 31.5453 19.7557 14.1678
H 30.0678 19.44 14.0712
O 29.758 2.27335 15.2238
H 29.2478 2.05947 16.005
H 29.1903 2.85522 14.7184
O 22.2386 0.744127 31.348
H 22.0456 0.923628 30.4278
H 21.9366 31.3377 31.4859
O 22.245 7.42604 31.1668
H 21.3223 7.67854 31.1349
H 22.5689 7.80319 31.9848
O 1.12626 17.2225 5.7709
H 31.8198 16.7424 5.99269
H 0.842449 18.1325 5.68388
O 27.315 24.4222 0.770508
H 27.2018 23.9954 1.61978
H 26.5197 24.9422 32.1468
O 30.3693 25.413 10.8671
H 30.6543 25.5274 11.7737
H 31.0493 24.8699 10.4685
O 1.73173 10.3079 28.8823
H 1.06711 10.0494 28.2438
H 1.61089 11.2518 28.9858
O 21.187 6.03962 5.0199
H 20.8877 6.92399 5.231
H 20.4609 5.4723 5.27912
O 2.14631 5.90483 28.4274
H 1.49071 5.48515 28.9844
H 2.97602 5.50789 28.6924
O 9.20909 21.573 3.18413
H 9.31129 22.4964 2.95335
H 10.0756 21.3048 3.48989
O 10.355 8.81496 11.4714
H 10.4995 7.95982 11.8765
H 10.6511 9.44488 12.1285
O 26.1597 31.8538 14.4059
H 26.713 31.202 13.9756
H 25.9184 31.4508 15.2399
O 6.63069 16.305 1.29998
H 6.27435 16.6174 2.13164
H 6.39705 16.9851 32.1596
O 25.188 5.93196 8.78279
H 25.4112 6.32216 7.9377
H 26.0303 5.67692 9.15929
O 9.73224 7.04008 2.47735
H 10.5995 6.68515 2.67261
H 9.81363 7.40034 1.59427
O 2.08877 17.226 27.5003
H 2.75893 17.0042 26.8538
H 1.60912 17.9556 27.1081
O 9.92017 6.54914 15.0566
H 9.45717 7.33864 14.7764
H 9.56636 5.85382 14.5021
O 18.5838 9.63537 22.3587
H 18.9762 8.78034 22.1822
H 17.6895 9.43638 22.6358
O 7.20079 3.70235 31.4445
H 7.48962 3.36053 0.799264
H 7.68166 4.52344 31.3406
O 4.73387 25.4763 23.0845
H 4.61742 24.8734 23.8188
H 4.3721 26.3061 23.3956
O 19.315 19.3941 26.1643
H 18.7615 19.582 25.4062
H 19.0217 18.5353 26.4686
O 6.04257 26.2669 28.8161
H 5.99887 26.432 29.758
H 5.61652 25.4175 28.7013
O 7.0948 15.2625 21.4067
H 7.1168 14.6075 20.7091
H 6.93016 14.7588 22.2038
O 12.5529 9.05119 14.6045
H 12.241 8.88372 15.4939
H 12.6066 8.18447 14.2019
O 21.5077 4.88272 2.3083
H 20.923 4.13429 2.42743
H 21.619 5.24274 3.1882
O 1.28783 17.8657 11.9896
H 32.0454 17.6733 11.4059
H 1.92078 18.3236 11.4365
O 15.5188 18.8069 15.4872
H 14.7269 19.3232 15.337
H 16.0701 19.3668 16.034
O 21.1332 26.1924 20.4632
H 21.2717 26.3146 21.4024
H 20.3032 26.6341 20.2835
O 13.5471 22.6367 15.2739
H 12.6528 22.4201 15.5377
H 13.6513 22.2233 14.4169
O 7.20562 20.3406 17.3343
H 6.61193 20.9279 16.8665
H 7.67756 19.876 16.6432
O 11.9731 26.0137 26.2844
H 12.5986 26.6295 26.6663
H 11.3361 25.8556 26.9811
O 26.6566 5.82254 31.5379
H 25.7752 5.59122 31.8308
H 26.5404 6.63523 31.0457
O 15.5666 31.421 31.3149
H 15.0449 32.1674 31.0202
H 16.4223 31.7946 31.5259
O 21.4847 9.57101 21.7251
H 22.1441 10.1313 21.3158
H 20.7966 10.1749 22.0044
O 19.6226 10.7579 14.8006
H 20.2774 10.7531 14.1024
H 20.0383 10.287 15.5228
O 14.4615 13.1512 14.8015
H 13.8349 12.705 15.3712
H 14.7496 12.4764 14.1867
O 0.927907 22.1296 23.3278
H 1.64986 21.5441 23.5562
H 1.0823 22.9163 23.8509
O 10.1013 18.7557 3.95877
H 11.0148 18.649 4.224
H 9.7161 19.306 4.64073
O 17.1455 2.9241 6.61787
H 16.5761 2.34068 6.11624
H 17.9738 2.92196 6.13811
O 7.38988 31.1535 29.8568
H 7.58812 32.0349 29.5405
H 7.96027 30.5807 29.3442
O 2.91606 5.78711 31.363
H 3.681 6.11652 31.8348
H 2.36071 6.55682 31.2391
O 6.74234 13.1216 9.18204
H 7.28419 13.4143 8.44928
H 7.14635 13.5195 9.95322
O 27.684 24.5173 17.663
H 27.97 25.1656 18.3064
H 27.172 23.8865 18.1691
O 25.437 7.30211 24.8229
H 25.7662 6.46972 24.4838
H 26.1724 7.66893 25.3138
O 6.47798 23.5578 19.1765
H 7.3677 23.2092 19.2322
H 6.27806 23.557 18.2404
O 24.0932 24.0562 25.6461
H 24.8186 23.9334 26.2585
H 24.267 23.4336 24.9402
O 25.5807 28.6604 29.6764
H 24.8478 28.4561 30.2572
H 26.3376 28.7249 30.2587
O 5.18612 25.5614 1.97243
H 4.87965 24.6602 2.07243
H 5.88515 25.6505 2.62024
O 12.5655 29.0028 20.4435
H 11.6836 29.0538 20.0747
H 12.5949 28.1505 20.8781
O 13.4922 16.0648 10.4002
H 13.0459 16.2211 9.56794
H 12.7875 15.8664 11.0169
O 31.9485 20.4177 10.3697
H 31.7502 21.0474 9.67662
H 31.1824 19.8445 10.3996
O 27.3436 26.1849 15.3789
H 26.867 25.5741 14.8168
H 27.5144 25.6902 16.1803
O 1.83849 25.0491 21.9011
H 1.34089 25.8237 22.1631
H 2.69959 25.3884 21.6568
O 26.737 25.2806 26.427
H 27.4665 25.6846 26.8969
H 26.9744 25.3582 25.5029
O 15.9669 15.4093 12.2927
H 16.3378 14.9897 11.5164
H 15.5685 16.2148 11.9628
O 10.991 7.39614 26.1902
H 11.2468 6.50304 26.4208
H 11.388 7.54558 25.3322
O 6.0533 18.137 18.6871
H 6.34982 18.945 18.2682
H 5.76952 17.5807 17.9617
O 20.7773 30.9633 17.2755
H 20.5097 30.4993 18.0687
H 20.3972 31.8369 17.3687
O 21.8016 19.4764 16.2904
H 22.5093 19.2633 15.682
H 21.2274 18.7109 16.2681
O 9.66779 20.0023 30.6711
H 9.86628 20.8984 30.3994
H 10.4265 19.7353 31.19
O 26.3747 6.04005 18.2084
H 25.6822 6.47842 18.7028
H 26.1142 5.11908 18.1954
O 27.9426 5.22987 9.98684
H 27.6874 5.60708 10.8288
H 27.5457 4.35882 9.98398
O 29.0368 12.2681 18.1275
H 28.3471 11.6549 18.3816
H 28.9632 12.3309 17.1752
O 25.8506 20.3448 24.553
H 26.2732 19.9441 23.7934
H 26.5581 20.8012 25.0084
O 8.65589 9.32318 22.537
H 9.30429 8.87205 21.9964
H 9.11574 10.0936 22.8705
O 29.8428 22.8311 1.8386
H 30.7744 22.96 2.01689
H 29.7134 21.8854 1.91029
O 2.3406 29.7165 19.9357
H 2.2149 30.6035 19.5988
H 2.65486 29.8421 20.8311
O 28.0556 6.00059 21.7963
H 27.5993 6.58966 21.1955
H 28.5448 6.58267 22.3778
O 29.1136 8.80833 19.542
H 29.0369 7.8746 19.3457
H 28.7279 9.24558 18.7829
O 21.011 14.0376 25.2142
H 20.3351 13.5805 25.7146
H 21.706 13.3891 25.1016
O 2.54561 25.8966 11.7156
H 2.17581 25.5981 10.8847
H 2.90898 25.1059 12.1144
O 22.5723 13.336 3.0826
H 22.0876 14.0687 2.70266
H 22.4076 13.4013 4.02327
O 24.7449 26.9186 27.4536
H 25.3056 27.5021 27.9648
H 25.3552 26.3531 26.9803
O 3.64503 4.4453 12.8173
H 4.58723 4.32074 12.7034
H 3.37595 4.95382 12.0523
O 10.1982 16.5437 5.96823
H 9.47179 16.335 5.38084
H 10.2642 17.4981 5.9386
O 18.5931 24.5619 3.63481
H 17.6429 24.5992 3.52537
H 18.8742 25.4764 3.60478
O 26.0149 12.8059 11.5331
H 26.8892 12.9527 11.8942
H 25.7929 11.9131 11.7974
O 21.422 23.1888 25.4996
H 22.2162 23.5277 25.9128
H 20.7097 23.4984 26.0591
O 14.7533 26.2672 30.3993
H 14.2735 25.4859 30.1242
H 15.3638 25.9517 31.0656
O 6.11381 21.6578 4.81202
H 6.95243 22.0983 4.6747
H 6.22385 20.7994 4.40294
O 17.9877 17.3216 27.6271
H 17.3794 16.9624 28.273
H 18.1159 16.612 26.9976
O 30.2618 5.15498 13.3446
H 30.0596 5.52156 14.2054
H 29.6952 5.63473 12.7404
O 22.4526 5.33416 14.184
H 22.2734 6.26169 14.3383
H 23.4012 5.28967 14.0644
O 2.56916 16.9605 3.40311
H 3.50901 16.9536 3.58438
H 2.15841 16.8575 4.26154
O 4.38972 26.3045 9.63989
H 5.15403 26.8452 9.83903
H 3.97065 26.1596 10.4882
O 8.27691 7.5518 27.023
H 8.25137 8.4397 27.3797
H 9.163 7.45917 26.673
O 22.843 4.60353 16.8355
H 22.9452 4.65164 15.885
H 23.5883 4.08058 17.1309
O 15.0484 10.4578 4.33762
H 15.9325 10.0957 4.27847
H 14.4736 9.69283 4.31195
O 15.2397 15.5069 17.4441
H 14.9379 16.4095 17.5469
H 15.9271 15.5579 16.7799
O 5.65598 32.1781 6.7789
H 6.39116 1.16023 6.38965
H 5.09163 1.37202 7.13681
O 8.46556 31.7818 32.1793
H 8.12097 31.6338 31.2987
H 9.40235 31.6002 32.1042
O 10.4766 2.29069 14.8705
H 11.2482 2.47374 15.4065
H 10.8313 2.02431 14.0223
O 20.2713 25.5975 28.5419
H 20.2485 25.5847 29.4988
H 19.9403 24.7377 28.2824
O 5.41728 16.8001 8.89807
H 4.57842 16.5448 8.51421
H 5.24138 17.64 9.32224
O 29.8857 8.15741 8.09342
H 30.236 8.08786 8.98149
H 29.2228 7.46872 8.04229
O 26.1681 28.9383 3.12453
H 27.0953 28.9516 3.36175
H 25.718 29.2824 3.89605
O 11.1716 12.5907 4.81039
H 10.7316 12.9819 4.05566
H 12.0642 12.9344 4.77255
O 15.4139 11.5972 29.3212
H 15.8825 12.4237 29.2049
H 14.7263 11.6154 28.6555
O 3.72624 4.88561 16.8738
H 4.51547 5.03054 17.3957
H 3.57175 3.94258 16.9292
O 31.3848 4.85362 17.9404
H 32.1573 5.38871 18.1228
H 31.4649 4.62426 17.0146
O 16.5504 25.6376 17.2094
H 15.9652 24.8808 17.1768
H 16.5974 25.9438 16.3037
O 19.5355 12.2684 11.5446
H 18.8979 12.9786 11.4711
H 20.3429 12.6988 11.8256
O 23.4056 28.9605 21.4286
H 23.2428 28.6266 20.5464
H 22.578 28.8294 21.8913
O 7.026 31.1674 16.8229
H 6.56866 30.462 16.3652
H 7.88866 31.2019 16.4095
O 5.18185 21.2435 14.04
H 5.56949 21.877 14.6437
H 5.83741 21.1366 13.3507
O 21.7841 6.48602 11.7255
H 21.9029 5.96699 12.521
H 22.5973 6.98375 11.6401
O 2.15081 6.10117 18.6942
H 2.93688 5.85098 18.2087
H 2.19081 5.58394 19.4987
O 4.40866 29.6603 18.4904
H 4.61831 28.728 18.5466
H 3.66049 29.7738 19.0765
O 7.74495 32.012 10.7144
H 7.53328 31.7724 11.6166
H 8.68339 32.2 10.7298
O 28.6352 25.9491 19.9335
H 28.8305 25.5539 20.7831
H 29.3268 26.5984 19.8062
O 2.36469 21.6658 19.777
H 1.9779 20.9414 20.2688
H 1.74293 22.386 19.8817
O 25.0673 18.8619 18.9372
H 24.6308 18.054 19.2074
H 25.9401 18.5823 18.6611
O 23.8128 18.2304 23.7019
H 23.9252 18.9309 24.3445
H 23.4605 17.4968 24.2059
O 21.762 26.0575 7.63876
H 21.0627 26.5153 7.17228
H 21.5166 25.1335 7.59229
O 7.81983 5.16825 28.0219
H 6.90862 5.24768 28.3041
H 8.09837 6.06849 27.8539
O 25.773 29.3835 16.1093
H 25.9424 28.9961 16.968
H 24.8239 29.505 16.0837
O 27.374 10.0907 8.87518
H 27.2137 9.98467 9.81289
H 26.7478 10.7599 8.59886
O 11.247 15.627 12.0004
H 10.8991 15.8603 11.1397
H 10.5116 15.7554 12.5995
O 2.46666 11.9304 5.17896
H 1.98244 11.5958 5.9338
H 1.79728 12.3257 4.62048
O 30.879 10.6317 31.4532
H 31.0429 11.3579 30.8515
H 29.937 10.4745 31.3887
O 22.2769 1.66653 7.2496
H 22.2127 2.5381 7.64007
H 22.3593 1.82995 6.31006
O 9.17955 5.88363 30.5603
H 9.00827 5.68226 29.6404
H 9.51541 6.77992 30.5513
O 19.1216 4.3247 8.22828
H 19.6378 3.54169 8.03678
H 19.728 4.90541 8.68796
O 22.2565 2.66563 26.2093
H 21.8317 3.38954 26.6695
H 22.6618 3.0728 25.4437
O 2.31785 28.7109 16.7584
H 2.99732 29.0448 17.3442
H 2.79743 28.2294 16.0844
O 10.5446 21.3233 13.1417
H 9.78074 20.9571 12.696
H 10.7364 22.1308 12.6648
O 29.7546 6.68748 15.4535
H 28.8338 6.88496 15.6251
H 30.2328 7.16449 16.1318
O 23.3302 10.3805 7.663
H 23.6207 10.2482 6.76059
H 22.8918 9.56224 7.89641
O 21.5457 6.85857 28.2347
H 21.821 6.96799 27.3245
H 22.0338 7.52727 28.7151
O 31.6225 27.2757 15.8748
H 0.787647 27.7448 16.3897
H 31.6769 26.3712 16.1831
O 30.8373 21.7192 29.2537
H 31.3272 21.536 30.0554
H 30.7764 20.8727 28.811
O 1.47283 1.36911 9.19094
H 1.92318 1.93034 8.55972
H 32.1285 1.16066 8.77331
O 4.98222 4.56234 9.56026
H 4.59217 3.93737 8.94911
H 5.87889 4.67778 9.2458
O 20.2855 28.4266 6.82729
H 19.4599 28.5206 7.30246
H 20.0601 28.612 5.91566
O 16.783 1.48761 28.5724
H 15.898 1.51345 28.9362
H 17.3083 1.0604 29.249
O 9.51197 31.23 15.5111
H 9.3374 31.0025 14.5978
H 9.73752 32.16 15.4878
O 28.0376 16.8109 8.03465
H 27.9305 17.7436 8.22101
H 28.0008 16.3889 8.89301
O 7.69975 10.2026 7.94339
H 7.86445 9.84673 8.81657
H 8.53326 10.5945 7.68282
O 11.2211 11.068 13.0603
H 11.3735 11.9442 13.4142
H 11.7947 10.4988 13.5734
O 9.20856 30.2618 5.51043
H 9.62293 29.975 6.32424
H 8.73143 29.4923 5.19994
O 14.8892 28.9174 6.04561
H 14.2773 29.5814 6.36337
H 15.0728 28.3739 6.81188
O 28.2009 26.2021 28.5928
H 28.3776 27.1409 28.5317
H 28.6972 25.9138 29.3588
O 8.96275 20.1352 21.7058
H 9.04267 20.2285 20.7565
H 8.03106 20.2659 21.8822
O 12.3121 4.8678 5.78076
H 13.0392 4.50818 5.27264
H 11.5379 4.4162 5.44465
O 24.7158 22.6375 23.4753
H 25.4247 23.1246 23.0552
H 25.1293 21.8322 23.7862
O 32.0503 2.11413 24.3903
H 31.5407 1.47856 24.8928
H 31.4777 2.87781 24.3184
O 31.2739 11.9358 11.3388
H 30.7414 12.1737 10.5798
H 32.158 11.829 10.9877
O 15.9521 29.0159 29.7308
H 15.24 28.5415 30.1598
H 16.1216 29.7638 30.3037
O 13.8602 3.98758 26.0645
H 13.3546 3.60532 25.3473
H 14.1693 3.23458 26.5682
O 14.8384 8.44115 11.8581
H 15.7088 8.29007 11.4896
H 14.3383 7.66034 11.6204
O 10.1828 19.2845 6.78838
H 9.4736 18.9774 7.3531
H 10.9815 19.0904 7.27906
O 13.2396 16.8053 29.3221
H 12.8508 15.9307 29.3358
H 13.445 16.991 30.2383
O 21.2374 31.9585 10.9655
H 21.6436 31.1726 10.5999
H 20.823 0.893981 10.2156
O 21.9681 10.3069 13.1387
H 22.3106 10.5911 13.9861
H 22.6445 10.5584 12.5099
O 16.6336 3.0105 15.9811
H 15.9979 2.42211 15.5739
H 16.2055 3.30767 16.784
O 30.4376 15.9838 6.97417
H 29.6564 16.3622 7.37766
H 30.1027 15.2859 6.41109
O 4.77363 6.45916 2.06695
H 5.49664 6.93505 1.65827
H 4.18476 7.14375 2.38443
O 24.9752 15.7717 29.4501
H 24.6562 14.89 29.2573
H 25.9172 15.7273 29.2863
O 18.7318 27.1034 19.1703
H 18.1582 26.6286 19.7719
H 19.0021 26.4471 18.5282
O 13.9188 22.9368 19.4872
H 13.6357 22.0229 19.5184
H 14.2652 23.1107 20.3624
O 13.9629 1.73995 27.6046
H 14.4019 0.938823 27.3189
H 14.0114 1.71246 28.5602
O 6.7285 27.6741 9.26676
H 7.58921 27.6162 9.68155
H 6.68242 28.5704 8.93382
O 2.68443 13.1588 20.4644
H 3.17713 13.2703 21.2774
H 3.27819 12.6776 19.888
O 6.81631 10.8864 21.6207
H 7.58964 10.3883 21.8855
H 7.16736 11.643 21.1511
O 28.1592 21.3169 25.5204
H 28.4597 22.1566 25.8681
H 28.8046 21.0895 24.8511
O 14.7191 11.7247 32.1105
H 13.9897 11.2562 1.02502
H 14.5788 11.6184 31.1697
O 24.0252 5.27342 32.1295
H 23.432 5.88874 31.6985
H 23.4568 4.74366 1.19712
O 20.4198 22.4709 3.21496
H 20.1144 21.7559 3.77338
H 19.8472 23.2065 3.43225
O 23.4731 9.59683 24.2682
H 23.4154 10.5001 23.9569
H 24.1595 9.6162 24.9351
O 25.5615 25.3794 10.3652
H 25.4436 25.4261 11.314
H 26.4771 25.1252 10.2494
O 11.6466 26.7902 2.83277
H 12.5519 26.9256 3.11263
H 11.304 27.673 2.69298
O 2.05604 31.1128 15.096
H 2.20778 30.3135 15.6002
H 1.10459 31.1609 15.003
O 17.0064 19.8503 12.4428
H 16.6719 20.4408 13.1178
H 16.309 19.2063 12.3202
O 29.5998 12.0553 9.25047
H 28.9209 11.3819 9.20724
H 29.9917 12.0574 8.37718
O 19.5278 8.42794 25.8922
H 20.1882 9.08547 26.1108
H 19.4077 7.93025 26.7009
O 14.1138 31.7695 11.192
H 14.7134 31.0542 11.4044
H 14.5473 1.06247 11.5283
O 23.4506 1.60637 17.7548
H 23.0298 1.21952 18.5226
H 24.2184 2.05862 18.1043
O 2.14679 10.2546 25.1615
H 1.63315 10.0536 25.9438
H 2.41609 9.39994 24.8251
O 24.9766 16.2475 32.1942
H 25.2374 15.4174 1.10195
H 24.7558 16.0205 31.2909
O 26.721 14.1974 4.24762
H 26.6474 13.3456 4.67816
H 26.1031 14.7578 4.71699
O 7.75086 19.6963 1.38398
H 8.32221 19.5688 32.1181
H 8.30337 20.1362 2.03009
O 8.71143 13.0232 24.9789
H 7.88579 13.3014 24.5825
H 9.1828 12.586 24.2697
O 28.5789 18.9678 13.1378
H 28.4339 18.2577 13.7632
H 27.7045 19.3156 12.9627
O 8.26844 27.7834 27.6122
H 7.56811 27.2847 28.033
H 8.15677 27.6118 26.6771
O 4.2167 23.7185 11.969
H 4.35176 23.1301 12.7118
H 5.09897 23.9095 11.6506
O 31.8193 15.2677 1.76314
H 31.056 15.7934 1.5235
H 0.978817 15.9074 2.05174
O 12.2118 31.4908 2.29903
H 11.9548 0.787983 1.82119
H 12.4779 31.809 3.16171
O 16.3342 16.2101 3.29027
H 17.2315 16.4812 3.48417
H 15.9062 17.0058 2.97402
O 2.08222 2.57145 29.0326
H 1.94637 2.45763 28.092
H 1.3663 3.14252 29.3112
O 2.86779 19.0058 10.364
H 2.06325 19.5243 10.3579
H 2.73976 18.356 9.67283
O 15.9881 14.3287 32.154
H 15.3583 13.614 0.756389
H 15.5238 15.1015 0.984307
O 22.6731 6.7233 25.4847
H 22.6207 5.81743 25.18
H 23.6044 6.9393 25.4361
O 5.83094 29.0367 21.9245
H 5.95471 28.1243 21.6629
H 5.06877 29.0191 22.5033
O 18.0375 28.5594 8.76323
H 17.3913 27.8691 8.61374
H 18.1466 28.5841 9.71387
O 16.8114 21.0646 2.11371
H 16.4833 20.9154 3.00047
H 17.4184 20.3411 1.95748
O 9.76893 22.7147 9.23164
H 9.7491 23.2447 10.0285
H 9.44415 21.857 9.50568
O 31.2012 10.7454 19.0009
H 30.3825 11.2082 18.8228
H 31.1022 9.903 18.5574
O 27.142 7.34928 15.7764
H 26.7219 6.82594 16.4589
H 26.4728 7.98045 15.5118
O 25.1098 1.36148 8.33758
H 25.6149 32.0628 8.14555
H 24.1998 1.1081 8.18291
O 2.79923 19.865 31.2264
H 2.51426 19.7821 32.1364
H 2.61064 19.0112 30.8371
O 6.95954 19.3817 24.5008
H 6.39245 19.4589 25.268
H 6.97476 20.2615 24.1241
O 19.598 22.9003 20.8187
H 19.9706 22.4414 21.5716
H 20.3324 23.3902 20.4487
O 8.83024 25.137 6.26133
H 7.96648 25.5355 6.15462
H 9.44338 25.8112 5.96836
O 25.6312 20.439 11.0255
H 26.0184 21.1688 11.5089
H 25.3004 20.8341 10.2188
O 7.17221 7.61621 7.13318
H 7.31086 8.5628 7.10199
H 7.74645 7.26697 6.45163
O 21.2207 28.2825 23.0188
H 20.4128 28.7803 22.8936
H 21.167 27.96 23.9184
O 4.39069 28.4241 27.979
H 3.73759 28.0516 27.3866
H 5.01547 27.7137 28.1247
O 22.1303 8.70105 3.26335
H 21.2982 8.23307 3.33223
H 21.905 9.53068 2.84246
O 29.9873 16.9261 29.4906
H 30.6015 16.3556 29.0286
H 29.8982 16.5307 30.3577
O 28.1814 16.7851 11.3299
H 27.2549 17.024 11.3032
H 28.6176 17.5558 11.6933
O 24.2928 26.5075 16.5468
H 23.9087 25.8508 15.9659
H 25.1809 26.6336 16.2126
O 24.4409 14.443 13.17
H 25.1099 14.054 12.6067
H 23.614 14.0954 12.8359
O 20.4245 26.1627 15.1094
H 19.9907 26.2336 14.259
H 20.3516 27.0381 15.4897
O 12.2722 29.2154 13.7572
H 12.2115 28.2635 13.8381
H 12.6554 29.5027 14.586
O 27.528 18.8658 17.3243
H 27.8369 19.7639 17.2051
H 28.2834 18.3973 17.6795
O 1.35249 12.9939 17.6606
H 32.116 12.4683 17.9924
H 2.09857 12.3943 17.655
O 15.249 11.4704 7.07006
H 14.5431 12.0744 7.30071
H 15.0324 11.1745 6.18589
O 11.925 14.629 16.9722
H 11.5747 15.4571 17.3005
H 12.8582 14.6632 17.1822
O 24.8309 2.19138 20.9813
H 25.5737 1.96535 21.5411
H 24.635 1.38448 20.5051
O 30.8103 4.55871 24.6749
H 30.6867 5.49155 24.4996
H 29.9934 4.28222 25.0902
O 28.8424 30.9335 17.6514
H 29.2549 30.3859 16.9835
H 28.9337 30.4329 18.4622
O 18.8522 15.115 13.0782
H 17.9897 15.4846 13.2669
H 18.9764 14.4418 13.7472
O 23.5891 7.10143 21.3889
H 24.4749 7.42221 21.2194
H 23.6529 6.15241 21.2816
O 19.1696 17.0498 9.15919
H 19.7526 16.9884 9.91589
H 18.8797 17.9621 9.15295
O 12.3534 8.5168 28.8074
H 12.0075 7.95597 28.1131
H 12.6139 9.3212 28.3588
O 5.93883 16.2609 16.5012
H 5.35801 15.513 16.6406
H 5.58188 16.7015 15.73
O 17.2812 24.5568 21.4189
H 17.8101 23.8667 21.0185
H 17.7986 24.8514 22.1683
O 27.1422 6.15141 6.67452
H 27.7788 6.10204 5.96142
H 26.8012 5.26053 6.75394
O 18.9688 1.71338 17.4577
H 18.8178 2.02363 18.3506
H 18.1661 1.9374 16.9868
O 24.831 21.4368 17.3739
H 24.0474 21.8139 16.974
H 24.4967 20.775 17.9793
O 1.55308 15.6191 17.3594
H 1.57417 14.6678 17.4636
H 2.06732 15.7855 16.5694
O 16.6752 16.3907 15.2399
H 17.5316 16.7949 15.3791
H 16.0515 17.1104 15.336
O 19.5063 26.279 12.4557
H 20.2385 26.1679 11.8493
H 19.1621 25.3947 12.5811
O 14.1456 14.2204 27.082
H 15.0377 14.133 26.7464
H 13.6056 13.7366 26.4571
O 5.84025 25.9907 20.5523
H 5.90735 25.0927 20.2276
H 5.31867 25.9186 21.3516
O 10.2781 29.3196 2.84313
H 11.0383 29.8987 2.78701
H 9.93134 29.4635 3.72363
O 18.601 3.11502 19.9342
H 19.3413 3.42376 20.4566
H 18.1706 2.46445 20.4889
O 8.46277 24.6152 30.392
H 9.2398 24.1888 30.7535
H 8.39794 25.4415 30.8708
O 30.2598 19.4188 28.1318
H 29.308 19.4991 28.071
H 30.4019 18.7447 28.7963
O 17.8734 28.6789 27.1169
H 17.6234 28.1882 26.334
H 17.8459 29.596 26.8442
O 10.5786 11.9124 22.9798
H 11.0944 11.58 22.2452
H 10.2631 12.7665 22.6845
O 17.236 15.3274 8.37984
H 17.5213 14.535 7.92492
H 18.0419 15.8218 8.52922
O 7.41635 28.1719 4.4507
H 6.53464 28.3199 4.79267
H 7.35873 28.4129 3.52613
O 4.03975 14.8034 10.9927
H 3.35793 14.8049 11.6646
H 4.78408 15.2417 11.4052
O 12.8803 25.8605 7.57186
H 12.841 25.0363 8.05695
H 13.7239 26.242 7.81501
O 1.22844 24.2629 9.88027
H 0.89251 23.5622 9.32142
H 1.23722 23.8852 10.7597
O 7.35753 16.0532 26.0866
H 7.52563 16.9379 25.7622
H 8.22406 15.6511 26.147
O 25.5065 21.1241 14.6275
H 25.3795 21.0489 15.5732
H 26.4317 21.3479 14.5266
O 5.41611 21.1488 31.8699
H 5.94442 20.4587 0.779685
H 4.60893 20.7087 31.6034
O 9.29149 30.1129 28.1983
H 9.00295 29.2243 27.9898
H 9.45753 30.5173 27.3468
O 31.7707 1.18217 3.51456
H 31.5025 2.07485 3.2969
H 31.0122 0.805642 3.96069
O 18.2784 3.73426 13.8808
H 17.6885 3.3425 13.2368
H 17.6992 4.06045 14.5696
O 17.1583 1.73689 10.193
H 17.7 1.56106 10.9623
H 17.2951 0.978767 9.62485
O 26.9766 20.5324 4.12395
H 27.7472 20.7041 3.58275
H 27.2292 19.7899 4.67256
O 15.8724 19.9745 27.2547
H 16.5326 19.2949 27.1188
H 16.1021 20.3672 28.0969
O 19.8815 8.54833 30.5584
H 19.511 8.13359 29.7793
H 19.5386 8.03474 31.2897
O 13.0857 3.22017 1.5227
H 12.7329 4.02148 1.9096
H 12.3469 2.83641 1.05023
O 27.8518 8.20119 25.7535
H 27.9003 9.14577 25.6064
H 28.1922 8.07855 26.6397
O 16.0957 21.7471 25.325
H 15.3021 21.4502 24.8797
H 16.1683 21.1777 26.091
O 17.1147 21.3444 8.70957
H 16.6048 20.5518 8.54209
H 16.7298 21.714 9.50418
O 24.0883 20.9447 3.7248
H 25.0054 20.7337 3.54954
H 23.7373 20.1592 4.14442
O 12.7808 19.8405 26.8484
H 13.7053 19.8626 26.6011
H 12.3122 20.0716 26.0464
O 9.77673 14.6949 22.5816
H 8.98457 15.1986 22.3943
H 10.2942 15.2644 23.1509
O 29.1387 23.6092 26.4439
H 28.4282 24.2307 26.6023
H 29.2814 23.1868 27.2909
O 6.63338 1.12322 2.924
H 7.10911 0.897944 2.12453
H 6.33804 31.7735 3.27261
O 16.164 8.16262 22.2196
H 16.7474 7.74986 21.5828
H 15.503 7.49607 22.4068
O 24.2535 21.649 8.84553
H 24.6795 22.0845 8.10721
H 23.6302 22.295 9.17794
O 31.0414 11.8521 6.96821
H 31.82 11.4548 7.35815
H 30.6357 11.1441 6.46773
O 19.373 22.2925 16.8145
H 19.761 22.3261 15.9402
H 19.443 23.189 17.1427
O 19.3278 23.4886 12.5772
H 19.9374 23.0451 13.167
H 19.5816 23.193 11.703
O 5.83747 2.44168 11.0561
H 5.40477 2.88108 10.3241
H 6.57028 1.97368 10.6559
O 5.35234 30.2558 3.43304
H 5.25551 29.5441 4.06584
H 4.59612 30.8212 3.59016
O 31.0256 3.72024 2.93585
H 30.9795 4.40537 3.60271
H 31.756 3.98044 2.37456
O 25.2387 2.47401 12.3754
H 25.9347 2.35767 11.7286
H 25.3496 1.74158 12.9816
O 27.3339 11.9306 5.7187
H 26.59 11.9412 6.3209
H 27.0856 11.3012 5.04157
O 20.3826 17.9996 28.8788
H 19.641 17.875 28.2864
H 20.2688 17.3272 29.5505
O 30.5057 21.3104 19.7863
H 30.9445 22.1564 19.8755
H 31.0408 20.707 20.3018
O 7.85726 18.7245 14.7548
H 7.82261 19.4535 14.1355
H 6.98853 18.3257 14.7049
O 31.6637 29.7469 0.913683
H 30.9089 29.6898 1.4995
H 32.0852 30.5745 1.14525
O 30.6442 25.3732 6.82112
H 31.4684 25.1076 6.41306
H 30.3932 24.6256 7.36364
O 31.2061 27.5205 29.6392
H 32.0094 28.0191 29.49
H 30.5269 28.0175 29.1831
O 15.2868 17.1995 7.18634
H 14.3955 16.8593 7.26511
H 15.8477 16.4338 7.30945
O 30.3054 32.0825 25.9699
H 29.9755 32.0054 26.8651
H 29.5183 32.138 25.428
O 31.3513 6.50297 6.65705
H 31.0092 7.30615 7.04965
H 31.3737 5.874 7.37824
O 30.6696 19.5166 17.4477
H 30.144 20.1169 17.9766
H 30.6044 19.8614 16.5572
O 1.08436 30.7278 6.0755
H 1.75366 31.3196 5.73193
H 31.7821 30.9564 5.59169
O 7.68052 15.8017 10.5564
H 7.19912 15.8844 11.3796
H 7.08638 16.1553 9.89435
O 18.3949 5.82097 16.4059
H 17.6229 5.37272 16.7513
H 19.1362 5.33559 16.7678
O 22.2869 32.0928 20.1177
H 22.1061 0.740895 21.0472
H 21.7893 31.3068 19.8918
O 9.79597 15.1149 26.435
H 9.58834 14.9119 27.3471
H 9.57389 14.317 25.9551
O 22.9853 29.3079 26.3133
H 22.203 28.9485 26.7318
H 22.7435 30.2049 26.0828
O 24.7409 12.8113 29.2039
H 24.2241 12.3431 29.8597
H 24.4685 12.432 28.3683
O 22.0232 19.6333 21.9801
H 22.4903 19.1264 22.6443
H 21.3873 20.1496 22.4755
O 27.0241 18.9859 22.1861
H 27.5442 18.293 22.5931
H 26.352 18.5205 21.6882
O 30.6961 7.46584 25.4806
H 30.4014 7.54999 26.3874
H 31.5938 7.14084 25.5492
O 14.788 9.51573 19.8228
H 14.688 9.63115 18.8778
H 14.8527 8.56835 19.9433
O 13.5138 27.9293 27.9201
H 14.1543 27.2283 28.041
H 13.1523 28.0773 28.794
O 18.0757 5.79109 11.286
H 17.7437 5.80426 12.1836
H 18.636 5.01591 11.2487
O 5.10094 7.37278 13.5711
H 5.73058 8.00416 13.9192
H 5.63688 6.73249 13.1031
O 17.0853 0.82914 12.909
H 17.9441 32.0454 13.2301
H 16.6878 31.5186 12.5697
O 10.9067 2.85921 21.4123
H 11.2738 2.81665 22.2953
H 10.0951 2.35442 21.4653
O 7.41986 13.0691 19.8777
H 6.76469 12.7776 19.2437
H 8.25768 12.9426 19.4324
O 0.841493 22.3894 12.3061
H 1.17422 21.8404 13.0161
H 0.813128 21.8079 11.5462
O 12.7725 19.3708 5.21038
H 13.1343 18.5032 5.39104
H 13.2866 19.964 5.75818
O 27.488 28.8304 31.3192
H 27.966 29.6267 31.0876
H 27.1755 28.9885 32.21
O 10.7066 29.9261 7.90694
H 11.4726 30.2643 7.44326
H 10.9596 29.9392 8.82999
O 5.14137 32.1768 28.5653
H 5.74406 0.821989 27.8343
H 5.70935 31.9924 29.3134
O 11.1828 18.8389 11.0521
H 10.8536 18.091 10.5535
H 10.5239 19.5213 10.9242
O 25.109 5.01226 14.3299
H 25.5989 5.11974 13.5146
H 25.5142 4.25666 14.7555
O 4.29713 22.3158 9.16189
H 3.7933 22.8288 8.53001
H 3.96377 22.5922 10.0156
O 10.4277 28.9528 16.8498
H 9.57399 28.5334 16.9574
H 10.2235 29.8412 16.5578
O 22.5284 20.1296 19.0655
H 22.8666 19.4906 18.4381
H 22.6179 19.7008 19.9166
O 29.7347 7.91943 3.86791
H 29.071 7.81949 3.1855
H 29.5441 8.76901 4.26554
O 28.5563 11.033 25.0143
H 29.1101 11.3724 25.7174
H 27.6993 11.4291 25.1714
O 16.9931 21.0522 16.5106
H 17.8662 21.442 16.5563
H 16.4094 21.7304 16.8504
O 18.3961 11.9104 24.7501
H 18.5385 11.33 24.0024
H 17.498 12.2237 24.6432
O 22.643 8.10198 14.7749
H 22.2844 8.74597 14.1643
H 23.5646 8.34404 14.8652
O 16.6168 8.14122 25.0348
H 17.4312 8.6218 25.1835
H 16.5197 8.12232 24.0828
O 30.3968 26.8086 3.65859
H 29.8894 27.5335 3.29342
H 30.6771 27.1212 4.51877
O 31.2661 9.75898 26.979
H 30.6378 9.36371 27.5834
H 31.1974 9.23203 26.1829
O 28.5396 16.4234 3.50719
H 28.1637 16.7716 2.69869
H 28.2175 15.5232 3.55334
O 18.1771 19.0912 17.7937
H 17.7474 19.9116 17.5522
H 18.8057 19.3399 18.4714