LAMMPS (22 Aug 2018)
####################################################
# Transport properties of NaCl in water
#  at 298 K and 1 atm.
#################### SETTING UP ####################
units real
dimension 3
newton on
boundary p p p
atom_style full

#################### VARIABLES ####################
variable Temp equal 298       # Temperature in K
variable Pres equal 1.0       # Pressure in atm.

variable RandomSeed equal 200 # The random seed for velocity
variable tstep equal 2.0      # 2fs
variable Ninptpre equal 10000 # Pre-initialize the NPT ensemble (very small timesteps)
variable Ninpt equal 5000000    # Initialize the NPT ensemble
variable Npnpt equal 5000000  # Production in the NPT ensemble (volume)
variable Ninvtpre equal 10000 # Pre-initialize the NVT ensemble (very small timesteps)
variable Ninvt equal 100000   # Initialize the NVT ensemble
variable Npnvt equal 100000   # Production in the NVT ensemble (energy)
variable Nrun equal 100000000   # production in the NVE ensemble
variable Nf equal 10000       # Nfreq (fix ave/time and thermo)
variable Ne equal  10         # Nevery (fix ave/time)
variable Nr equal ${Nf}/${Ne} # Nrepeat (fix ave/time)
variable Nr equal 10000/${Ne} 
variable Nr equal 10000/10 
variable NBR equal ${Npnpt}/50 # Block averaging for density (NPT)
variable NBR equal 5000000/50 
variable Nd equal ${Npnvt}/10 # Frequency of outputting positions of atoms in the NVT ensemble
variable Nd equal 100000/10 

variable nb equal 10          # Number of blocks (fix ordern)
variable nbe equal 20         # Number of block elements (fix ordern)
variable Nvisc equal 5        # Nevery for viscosity (fix ordern: sample data at (Nvisc*2))
variable Ncond equal 5        # Nevery for Tconductivity (fix ordern: sample data at (Ncond*2))
variable Ndiff equal 1000     # Nevery for diffusivity (fix ordern: sample data at (Ndiff))
variable Nwrit equal 100000   # Nwrite for transport properties (fix ordern: write every (Nwrit))

variable Nrdfe equal 100      # Nevery for RDF (fix ave/time)
variable Nrdfw equal 1000     # Nwrite for RDF (compute rdf/ext: write every (Nrdfw*Nrdfe))
variable binnum equal 2000    # Number of bins for RDF

#################### ATOM DEFINITION and FORCEFIELD ####################
read_data ./data.lmp                     # read the positions
  orthogonal box = (0 0 0) to (32.5249 32.5249 32.5249)
  4 by 4 by 8 MPI processor grid
  reading atoms ...
  3036 atoms
  scanning bonds ...
  2 = max bonds/atom
  scanning angles ...
  1 = max angles/atom
  reading bonds ...
  2000 bonds
  reading angles ...
  1000 angles
  2 = max # of 1-2 neighbors
  1 = max # of 1-3 neighbors
  1 = max # of 1-4 neighbors
  2 = max # of special neighbors
include ./forcefield.data                  # read the force field
#--------INTERMOLECULAR POTENTIAL -------------------#
# ---------------Developed for NaCl in water (tip4p/2005) system-----

mass 1 15.9994 # Ow
mass 2 1.00794 # Hw
mass 3 22.9897 # Na
mass 4 35.4527 # Cl

pair_style lj/cut/tip4p/long 1 2 1 1 0.1546 10.0

kspace_style pppm/tip4p 1.0e-5
pair_modify tail yes # ATC i

#-----------------Combinations----------------------------
# atomtype atomtype epsilon sigma

pair_coeff 1 1 0.1851 3.1589     # Ow-Ow
pair_coeff 1 2 0.0000 0.0000     # Ow-Hw
pair_coeff 1 3 0.1895 2.38725     # Ow-Na
pair_coeff 1 4 0.0148 4.07631     # Ow-Cl

pair_coeff 2 2 0.0000 0.0000     # Hw-Hw
pair_coeff 2 3 0.0000 0.0000     # Hw-Na
pair_coeff 2 4 0.0000 0.0000     # Hw-Cl

pair_coeff 3 3 0.3517 2.21737     # Na-Na
pair_coeff 3 4 0.3437 2.58012     # Na-Cl

pair_coeff 4 4 0.01837 4.69906     # Cl-Cl

bond_style  harmonic
bond_coeff 1 1000 0.9572          # Ow-Hw

angle_style harmonic
angle_coeff 1 100 104.52          # H-O-H

#dihedral_style none
#improper_style none

set type 1 charge -1.1128        # O
  1000 settings made for charge
set type 2 charge +0.5564        # OH
  2000 settings made for charge
set type 3 charge +0.7500        # Na
  18 settings made for charge
set type 4 charge -0.7500        # Cl
  18 settings made for charge


#################### INITIALIZATION ####################
# groups for the central atoms of water (O)
group wat type 1      # The Oxygen of WATER molecules
1000 atoms in group wat
group Na type 3
18 atoms in group Na
group Cl type 4
18 atoms in group Cl

# neigbor lists
neighbor 2.0 bin
neigh_modify every 1 delay 0 check yes

# velocity-Verlet integrator
run_style verlet

# minimizing the system using the conjugate gradient method
min_style cg
min_modify dmax 0.05
minimize 1.0e-6 1.0e-6 1000 10000
PPPM initialization ...
  extracting TIP4P info from pair style
  using 12-bit tables for long-range coulomb (../kspace.cpp:321)
  G vector (1/distance) = 0.309318
  grid = 30 30 30
  stencil order = 5
  estimated absolute RMS force accuracy = 0.00381678
  estimated relative force accuracy = 1.14941e-05
  using double precision FFTs
  3d grid and FFT values/proc = 2475 256
Neighbor list info ...
  update every 1 steps, delay 0 steps, check yes
  max neighbors/atom: 2000, page size: 100000
  master list distance cutoff = 12.3092
  ghost atom cutoff = 12.3092
  binsize = 6.1546, bins = 6 6 6
  1 neighbor lists, perpetual/occasional/extra = 1 0 0
  (1) pair lj/cut/tip4p/long, perpetual
      attributes: half, newton on
      pair build: half/bin/newton
      stencil: half/bin/3d/newton
      bin: standard
Per MPI rank memory allocation (min/avg/max) = 8.198 | 8.26 | 8.733 Mbytes
Step Temp E_pair E_mol TotEng Press 
       0            0    304.81359 3.4661043e-05    304.81363    17134.375 
    1000            0   -16104.981    371.92912   -15733.052    -5109.159 
Loop time of 1.43362 on 128 procs for 1000 steps with 3036 atoms

98.7% CPU use with 128 MPI tasks x no OpenMP threads

Minimization stats:
  Stopping criterion = max iterations
  Energy initial, next-to-last, final = 
         304.813627879     -15732.9270853     -15733.0516619
  Force two-norm initial, final = 1135.66 25.767
  Force max component initial, final = 74.5395 7.10043
  Final line search alpha, max atom move = 0.0096375 0.0684305
  Iterations, force evaluations = 1000 1802

MPI task timing breakdown:
Section |  min time  |  avg time  |  max time  |%varavg| %total
---------------------------------------------------------------
Pair    | 0.2235     | 0.36499    | 0.53567    |  11.2 | 25.46
Bond    | 0.0010373  | 0.001634   | 0.0021623  |   0.5 |  0.11
Kspace  | 0.60834    | 0.78553    | 0.92395    |   7.7 | 54.79
Neigh   | 0.0066284  | 0.0069165  | 0.0071752  |   0.2 |  0.48
Comm    | 0.17764    | 0.19392    | 0.20939    |   1.8 | 13.53
Output  | 8.7252e-05 | 9.2767e-05 | 9.6641e-05 |   0.0 |  0.01
Modify  | 0          | 0          | 0          |   0.0 |  0.00
Other   |            | 0.08053    |            |       |  5.62

Nlocal:    23.7188 ave 32 max 10 min
Histogram: 1 1 3 12 11 30 26 21 13 10
Nghost:    2689.23 ave 2714 max 2660 min
Histogram: 5 0 12 15 17 28 19 19 10 3
Neighs:    8182.52 ave 12041 max 3383 min
Histogram: 1 2 11 15 25 23 22 15 8 6

Total # of neighbors = 1047362
Ave neighs/atom = 344.981
Ave special neighs/atom = 1.97628
Neighbor list builds = 20
Dangerous builds = 0
reset_timestep 0

# initializing velocities
velocity all create ${Temp} ${RandomSeed}
velocity all create 298 ${RandomSeed}
velocity all create 298 200

# rate of writing thermal properties to the log file
thermo ${Nf}
thermo 10000

#################### 1) Initialize the NPT ensemble ####################
# applying the shake algorithm for rigid molecules and the NPT solver
fix constrain all shake 1.0e-6 1000 0 b 1 a 1
  0 = # of size 2 clusters
  0 = # of size 3 clusters
  0 = # of size 4 clusters
  1000 = # of frozen angles
fix integrate all npt temp ${Temp} ${Temp} 10.0 iso ${Pres} ${Pres} 100.0
fix integrate all npt temp 298 ${Temp} 10.0 iso ${Pres} ${Pres} 100.0
fix integrate all npt temp 298 298 10.0 iso ${Pres} ${Pres} 100.0
fix integrate all npt temp 298 298 10.0 iso 1 ${Pres} 100.0
fix integrate all npt temp 298 298 10.0 iso 1 1 100.0


# Initializing the whole system with very small timesteps in the NPT ensemble
timestep 0.001
run ${Ninptpre}
run 10000
PPPM initialization ...
  extracting TIP4P info from pair style
  using 12-bit tables for long-range coulomb (../kspace.cpp:321)
  G vector (1/distance) = 0.309318
  grid = 30 30 30
  stencil order = 5
  estimated absolute RMS force accuracy = 0.00381678
  estimated relative force accuracy = 1.14941e-05
  using double precision FFTs
  3d grid and FFT values/proc = 2475 256
Per MPI rank memory allocation (min/avg/max) = 7.949 | 8.107 | 8.217 Mbytes
Step Temp E_pair E_mol TotEng Press Volume 
       0    444.43735   -16104.981            0   -13409.047   -180407.77    34407.173 
   10000    168.92245   -14497.299            0   -13472.625    1556.9557    34229.034 
Loop time of 9.0826 on 128 procs for 10000 steps with 3036 atoms

Performance: 0.095 ns/day, 252.294 hours/ns, 1101.007 timesteps/s
99.4% CPU use with 128 MPI tasks x no OpenMP threads

MPI task timing breakdown:
Section |  min time  |  avg time  |  max time  |%varavg| %total
---------------------------------------------------------------
Pair    | 0.9813     | 2.3835     | 3.6718     |  32.8 | 26.24
Bond    | 0.00093289 | 0.0011879  | 0.0020572  |   0.6 |  0.01
Kspace  | 3.08       | 4.3834     | 5.7504     |  24.1 | 48.26
Neigh   | 0          | 0          | 0          |   0.0 |  0.00
Comm    | 0.91607    | 1.0315     | 1.1539     |   5.0 | 11.36
Output  | 8.1291e-05 | 8.6663e-05 | 9.1701e-05 |   0.0 |  0.00
Modify  | 0.94819    | 1.1438     | 1.222      |   6.1 | 12.59
Other   |            | 0.1391     |            |       |  1.53

Nlocal:    23.7188 ave 32 max 10 min
Histogram: 1 1 3 12 10 31 25 22 14 9
Nghost:    2690.38 ave 2716 max 2658 min
Histogram: 4 2 8 16 16 25 20 20 13 4
Neighs:    8181.99 ave 12280 max 3390 min
Histogram: 1 2 12 15 28 20 22 17 7 4

Total # of neighbors = 1047295
Ave neighs/atom = 344.959
Ave special neighs/atom = 1.97628
Neighbor list builds = 0
Dangerous builds = 0
timestep 0.01
run ${Ninptpre}
run 10000
PPPM initialization ...
  extracting TIP4P info from pair style
  using 12-bit tables for long-range coulomb (../kspace.cpp:321)
  G vector (1/distance) = 0.309443
  grid = 30 30 30
  stencil order = 5
  estimated absolute RMS force accuracy = 0.00379713
  estimated relative force accuracy = 1.1435e-05
  using double precision FFTs
  3d grid and FFT values/proc = 2475 256
Per MPI rank memory allocation (min/avg/max) = 7.949 | 8.107 | 8.217 Mbytes
Step Temp E_pair E_mol TotEng Press Volume 
   10000    168.92245   -14497.299            0   -13472.624   -88153.407    34229.034 
   20000    293.84969   -13368.564            0   -11586.087   -893.33226    34429.751 
Loop time of 9.51352 on 128 procs for 10000 steps with 3036 atoms

Performance: 0.908 ns/day, 26.426 hours/ns, 1051.136 timesteps/s
99.4% CPU use with 128 MPI tasks x no OpenMP threads

MPI task timing breakdown:
Section |  min time  |  avg time  |  max time  |%varavg| %total
---------------------------------------------------------------
Pair    | 1.3332     | 2.365      | 3.8534     |  32.2 | 24.86
Bond    | 0.00093689 | 0.0011692  | 0.0020862  |   0.6 |  0.01
Kspace  | 3.3361     | 4.7977     | 5.8672     |  22.6 | 50.43
Neigh   | 0.0012335  | 0.0012821  | 0.0013142  |   0.1 |  0.01
Comm    | 0.92424    | 1.0421     | 1.1615     |   5.2 | 10.95
Output  | 9.3644e-05 | 0.0001005  | 0.00010478 |   0.0 |  0.00
Modify  | 0.96332    | 1.1642     | 1.2525     |   6.3 | 12.24
Other   |            | 0.1421     |            |       |  1.49

Nlocal:    23.7188 ave 39 max 14 min
Histogram: 3 14 19 27 35 15 12 1 1 1
Nghost:    2680.45 ave 2710 max 2654 min
Histogram: 4 17 17 16 18 11 14 17 8 6
Neighs:    8141.59 ave 14497 max 4771 min
Histogram: 9 19 26 29 22 14 6 2 0 1

Total # of neighbors = 1042124
Ave neighs/atom = 343.256
Ave special neighs/atom = 1.97628
Neighbor list builds = 4
Dangerous builds = 0
timestep 0.1
run ${Ninptpre}
run 10000
PPPM initialization ...
  extracting TIP4P info from pair style
  using 12-bit tables for long-range coulomb (../kspace.cpp:321)
  G vector (1/distance) = 0.309302
  grid = 30 30 30
  stencil order = 5
  estimated absolute RMS force accuracy = 0.00381927
  estimated relative force accuracy = 1.15016e-05
  using double precision FFTs
  3d grid and FFT values/proc = 2475 256
Per MPI rank memory allocation (min/avg/max) = 7.949 | 8.117 | 8.217 Mbytes
Step Temp E_pair E_mol TotEng Press Volume 
   20000    293.84969   -13368.564            0   -11586.087   -15528.084    34429.751 
   30000     296.9468    -13423.17            0   -11621.906    365.00514    31304.058 
Loop time of 9.26541 on 128 procs for 10000 steps with 3036 atoms

Performance: 9.325 ns/day, 2.574 hours/ns, 1079.284 timesteps/s
99.4% CPU use with 128 MPI tasks x no OpenMP threads

MPI task timing breakdown:
Section |  min time  |  avg time  |  max time  |%varavg| %total
---------------------------------------------------------------
Pair    | 1.7816     | 2.576      | 3.7138     |  24.3 | 27.80
Bond    | 0.00095318 | 0.0011812  | 0.002011   |   0.6 |  0.01
Kspace  | 3.2121     | 4.321      | 5.147      |  18.6 | 46.64
Neigh   | 0.014763   | 0.01509    | 0.015428   |   0.2 |  0.16
Comm    | 0.9406     | 1.0571     | 1.1841     |   5.2 | 11.41
Output  | 7.6944e-05 | 8.157e-05  | 8.587e-05  |   0.0 |  0.00
Modify  | 0.95087    | 1.1511     | 1.2359     |   6.3 | 12.42
Other   |            | 0.1439     |            |       |  1.55

Nlocal:    23.7188 ave 32 max 15 min
Histogram: 2 9 18 4 26 26 14 18 9 2
Nghost:    2899.56 ave 2949 max 2857 min
Histogram: 3 6 21 26 22 19 15 8 5 3
Neighs:    8948.08 ave 12419 max 5141 min
Histogram: 4 4 12 17 21 25 16 15 9 5

Total # of neighbors = 1145354
Ave neighs/atom = 377.258
Ave special neighs/atom = 1.97628
Neighbor list builds = 50
Dangerous builds = 0
timestep 0.2
run ${Ninptpre}
run 10000
PPPM initialization ...
  extracting TIP4P info from pair style
  using 12-bit tables for long-range coulomb (../kspace.cpp:321)
  G vector (1/distance) = 0.311589
  grid = 30 30 30
  stencil order = 5
  estimated absolute RMS force accuracy = 0.00347487
  estimated relative force accuracy = 1.04645e-05
  using double precision FFTs
  3d grid and FFT values/proc = 2475 256
Per MPI rank memory allocation (min/avg/max) = 7.953 | 8.175 | 8.219 Mbytes
Step Temp E_pair E_mol TotEng Press Volume 
   30000     296.9468    -13423.17            0   -11621.906   -1249.2998    31304.058 
   40000    291.01383    -13584.61            0   -11819.335   -905.09634    30904.739 
Loop time of 9.61931 on 128 procs for 10000 steps with 3036 atoms

Performance: 17.964 ns/day, 1.336 hours/ns, 1039.575 timesteps/s
99.4% CPU use with 128 MPI tasks x no OpenMP threads

MPI task timing breakdown:
Section |  min time  |  avg time  |  max time  |%varavg| %total
---------------------------------------------------------------
Pair    | 1.989      | 2.7266     | 3.5129     |  19.7 | 28.35
Bond    | 0.00094583 | 0.0011706  | 0.0020887  |   0.6 |  0.01
Kspace  | 3.6298     | 4.4171     | 5.1321     |  15.2 | 45.92
Neigh   | 0.029488   | 0.030031   | 0.030576   |   0.2 |  0.31
Comm    | 0.97348    | 1.0869     | 1.2186     |   5.1 | 11.30
Output  | 8.8044e-05 | 9.463e-05  | 9.9155e-05 |   0.0 |  0.00
Modify  | 1.0019     | 1.2064     | 1.2918     |   6.1 | 12.54
Other   |            | 0.1509     |            |       |  1.57

Nlocal:    23.7188 ave 31 max 14 min
Histogram: 1 2 10 11 21 31 13 19 16 4
Nghost:    2943.07 ave 2989 max 2899 min
Histogram: 5 6 11 24 13 31 14 17 4 3
Neighs:    9135.29 ave 13467 max 5381 min
Histogram: 3 8 13 21 28 28 14 8 3 2

Total # of neighbors = 1169317
Ave neighs/atom = 385.151
Ave special neighs/atom = 1.97628
Neighbor list builds = 97
Dangerous builds = 0
timestep 0.5
run ${Ninptpre}
run 10000
PPPM initialization ...
  extracting TIP4P info from pair style
  using 12-bit tables for long-range coulomb (../kspace.cpp:321)
  G vector (1/distance) = 0.311895
  grid = 30 30 30
  stencil order = 5
  estimated absolute RMS force accuracy = 0.00343092
  estimated relative force accuracy = 1.03321e-05
  using double precision FFTs
  3d grid and FFT values/proc = 2475 256
Per MPI rank memory allocation (min/avg/max) = 7.956 | 8.207 | 8.219 Mbytes
Step Temp E_pair E_mol TotEng Press Volume 
   40000    291.01383    -13584.61            0   -11819.335    -1.387085    30904.739 
   50000    301.68861   -13630.361            0   -11800.334    422.56473     30505.91 
Loop time of 10.608 on 128 procs for 10000 steps with 3036 atoms

Performance: 40.724 ns/day, 0.589 hours/ns, 942.685 timesteps/s
99.4% CPU use with 128 MPI tasks x no OpenMP threads

MPI task timing breakdown:
Section |  min time  |  avg time  |  max time  |%varavg| %total
---------------------------------------------------------------
Pair    | 1.8933     | 2.7796     | 3.6672     |  19.6 | 26.20
Bond    | 0.00094856 | 0.001171   | 0.0020886  |   0.5 |  0.01
Kspace  | 4.3096     | 5.1545     | 6.0105     |  14.0 | 48.59
Neigh   | 0.074486   | 0.076486   | 0.078591   |   0.6 |  0.72
Comm    | 0.99755    | 1.1394     | 1.2942     |   5.8 | 10.74
Output  | 9.0849e-05 | 9.7333e-05 | 0.0001027  |   0.0 |  0.00
Modify  | 1.0801     | 1.2987     | 1.4014     |   6.2 | 12.24
Other   |            | 0.158      |            |       |  1.49

Nlocal:    23.7188 ave 31 max 15 min
Histogram: 2 7 6 11 12 38 27 13 11 1
Nghost:    2951.98 ave 2985 max 2918 min
Histogram: 3 11 13 13 22 24 16 13 8 5
Neighs:    9204.02 ave 12963 max 5311 min
Histogram: 3 7 9 17 24 29 18 12 5 4

Total # of neighbors = 1178114
Ave neighs/atom = 388.048
Ave special neighs/atom = 1.97628
Neighbor list builds = 242
Dangerous builds = 0
reset_timestep 0

# continuing the initialization with the final value of timestep
unfix integrate
fix integrate all npt temp ${Temp} ${Temp} 100.0 iso ${Pres} ${Pres} 1000.0
fix integrate all npt temp 298 ${Temp} 100.0 iso ${Pres} ${Pres} 1000.0
fix integrate all npt temp 298 298 100.0 iso ${Pres} ${Pres} 1000.0
fix integrate all npt temp 298 298 100.0 iso 1 ${Pres} 1000.0
fix integrate all npt temp 298 298 100.0 iso 1 1 1000.0
#fix integrate all rigid/npt/small molecule temp ${Temp} ${Temp} 100.0 iso ${Pres} ${Pres} 1000.0

timestep ${tstep}
timestep 2
run ${Ninpt}
run 5000000
PPPM initialization ...
  extracting TIP4P info from pair style
  using 12-bit tables for long-range coulomb (../kspace.cpp:321)
  G vector (1/distance) = 0.312205
  grid = 30 30 30
  stencil order = 5
  estimated absolute RMS force accuracy = 0.00338704
  estimated relative force accuracy = 1.02e-05
  using double precision FFTs
  3d grid and FFT values/proc = 2475 256
Per MPI rank memory allocation (min/avg/max) = 8.201 | 8.213 | 8.219 Mbytes
Step Temp E_pair E_mol TotEng Press Volume 
       0    301.68861   -13630.361            0   -11800.333   -411.71436     30505.91 
   10000    292.03635   -13630.907            0    -11859.43    471.50771    31196.594 
   20000    300.19441   -13594.101            0   -11773.137   -412.63221    30764.669 
   30000    309.54472   -13530.848            0   -11653.165    845.15702    30535.334 
   40000    304.16963   -13683.949            0   -11838.871      9.33391    30567.946 
   50000    291.60535   -13642.176            0   -11873.313    417.37509    30140.994 
   60000    286.79063   -13664.981            0   -11925.324   -292.87534    30527.929 
   70000    292.99687   -13578.307            0   -11801.003   -684.10744    30987.929 
   80000    298.65036   -13530.074            0   -11718.476    432.09227    30314.245 
   90000    284.82883   -13595.725            0   -11867.968   -519.36257    31054.646 
  100000    302.23452   -13605.766            0   -11772.427   -21.732274    30257.911 
  110000    298.03289   -13591.057            0   -11783.205   -663.74645    31246.169 
  120000    288.20834   -13656.748            0   -11908.492    292.92291    30577.889 
  130000    304.39451   -13592.121            0   -11745.679     -215.762    30875.835 
  140000    305.70586   -13623.661            0   -11769.265     -24.5091    31067.309 
  150000     289.6319   -13556.151            0   -11799.259    54.224581    30780.774 
  160000        287.1   -13646.666            0   -11905.132     511.3673    30345.297 
  170000    296.60782   -13636.649            0   -11837.441   -454.57714    30171.689 
  180000    301.00067   -13487.652            0   -11661.797   -433.49385    30799.868 
  190000    290.05889   -13643.981            0   -11884.498   -47.642302    30178.106 
  200000    299.16829   -13640.552            0   -11825.812     745.1757    30068.841 
  210000    295.22319   -13588.747            0   -11797.938    -70.93027    30781.935 
  220000    298.99808   -13491.073            0   -11677.366   -326.45206    30935.156 
  230000    294.08482   -13574.279            0   -11790.375    -945.8317     30660.76 
  240000    302.00616    -13620.81            0   -11788.856   -410.85576    30780.839 
  250000    290.63404   -13596.526            0   -11833.555   -14.100116    30695.896 
  260000    308.40055   -13420.227            0   -11549.485    133.80901    30493.891 
  270000    305.92948   -13652.455            0   -11796.703     642.0302    30414.097 
  280000    294.38463   -13552.916            0   -11767.194   -515.19735    30582.169 
  290000    299.40016    -13671.32            0   -11855.175   -271.68385    30579.116 
  300000    299.17845   -13602.156            0   -11787.355    99.474789    30438.743 
  310000    296.60869   -13624.454            0   -11825.241    50.068085    30867.042 
  320000    304.01077   -13658.087            0   -11813.973   -186.67018    30775.812 
  330000    295.79948   -13635.967            0   -11841.663   -76.030883    30831.998 
  340000    299.32787   -13548.354            0   -11732.646   -318.36271    30742.499 
  350000     303.1447    -13643.27            0    -11804.41   -968.07334    31120.123 
  360000    300.62026   -13581.563            0   -11758.016   -461.50914    30877.907 
  370000    293.17621   -13552.919            0   -11774.527     -363.384    30443.003 
  380000    284.78147   -13533.448            0   -11805.978   -307.05925    30424.594 
  390000    295.56143    -13673.55            0   -11880.689   -865.78715    30678.573 
  400000    289.39026   -13651.991            0   -11896.565   -138.03966    30820.407 
  410000    296.85381   -13645.134            0   -11844.434   -178.62218    30640.174 
  420000    300.47989   -13676.729            0   -11854.034    36.673717    30238.496 
  430000    301.06196   -13606.887            0   -11780.661    -422.5863    30721.803 
  440000    296.94472   -13548.467            0   -11747.216   -357.03947    30605.261 
  450000     300.5235   -13577.541            0   -11754.581   -332.12807    30546.707 
  460000    306.16197   -13530.152            0   -11672.989    281.21908    30380.089 
  470000    300.91694   -13580.007            0   -11754.661    2.2206031    30599.826 
  480000    305.14407   -13677.507            0   -11826.519    298.89993    30560.366 
  490000    298.72943    -13597.94            0   -11785.863   -176.39729     30985.27 
  500000    295.66075   -13618.623            0    -11825.16    -86.86644    30899.096 
  510000    303.85737   -13679.619            0   -11836.436    -50.01066    30468.522 
  520000     291.2705   -13634.999            0   -11868.167   -234.45969    30705.655 
  530000    297.61455   -13599.951            0   -11794.637   -303.68778    30960.912 
  540000    302.63996   -13552.126            0   -11716.327   -127.43551    30822.993 
  550000    296.87326   -13553.836            0   -11753.018    333.24089    30777.439 
  560000    300.28727   -13559.524            0   -11737.997   -860.64079    30769.265 
  570000    294.92586   -13678.592            0   -11889.587   -247.71178    30199.059 
  580000    295.85049   -13589.362            0   -11794.748   -468.87034    30957.727 
  590000    291.57941   -13656.784            0   -11888.078   -330.90713    30408.927 
  600000    303.78781   -13627.882            0    -11785.12     12.24617    30608.338 
  610000    300.57047    -13638.22            0   -11814.975   -821.85891    30946.602 
  620000     303.7734    -13531.38            0   -11688.706      99.8392    30862.189 
  630000    294.52978   -13541.993            0    -11755.39    73.068394    29923.351 
  640000    306.87927   -13594.089            0   -11732.575     175.8455    30683.486 
  650000    289.43879    -13510.88            0    -11755.16    771.84473    30447.464 
  660000    302.39334   -13623.107            0   -11788.805   -1173.9399    30736.568 
  670000    291.84551   -13565.443            0   -11795.123   -76.681129    30636.072 
  680000    299.02116   -13613.693            0   -11799.846   -165.16089    30798.604 
  690000    293.09277    -13578.52            0   -11800.634    627.86155    30777.339 
  700000    295.32037   -13630.031            0   -11838.633   -14.428774    30680.947 
  710000    295.47688   -13571.654            0   -11779.307    774.92832    30143.132 
  720000    302.43419   -13596.236            0   -11761.686    260.34354    30462.486 
  730000    300.14219    -13663.12            0   -11842.473   -582.59529    30595.851 
  740000    292.48025   -13520.516            0   -11746.346   -491.45399     30745.19 
  750000    300.47826   -13560.447            0   -11737.761   -59.842782    30964.767 
  760000    302.06592   -13521.354            0   -11689.038   -1372.6999    31017.246 
  770000    292.65226   -13511.418            0   -11736.205   -564.29379    30979.406 
  780000    303.01043   -13655.001            0   -11816.956   -92.768854     30803.53 
  790000    293.50802   -13509.276            0   -11728.871   -388.33375    30814.005 
  800000    293.54218   -13621.662            0    -11841.05    36.539562    30601.887 
  810000    302.26841   -13610.056            0   -11776.511    383.79115    30481.785 
  820000    298.37238   -13660.307            0   -11850.396    32.889913     30517.21 
  830000    289.71894   -13673.673            0   -11916.253    520.17813    30260.574 
  840000    288.64932   -13567.185            0   -11816.253     447.9667    30531.877 
  850000     294.2389   -13514.414            0   -11729.576    -136.7667     31058.53 
  860000    294.05008   -13609.315            0   -11825.623    1.7971622    30787.647 
  870000    297.57114   -13502.162            0    -11697.11   -787.36242     30849.35 
  880000     308.1961   -13573.743            0   -11704.241   -274.74904    30663.277 
  890000    294.55196   -13557.834            0   -11771.097    588.29659    30894.729 
  900000    303.67384   -13532.046            0   -11689.976   -491.42843    31338.133 
  910000    293.29356   -13662.368            0   -11883.264    52.488481    30232.432 
  920000    306.79268    -13531.29            0   -11670.301    87.517408    30643.655 
  930000    302.55832   -13636.218            0   -11800.915     852.6434    30478.142 
  940000    287.07771   -13493.314            0   -11751.916    -591.3544    31190.302 
  950000    302.54627   -13577.312            0   -11742.082   -247.98804    30897.898 
  960000    297.85912   -13574.947            0   -11768.149   -382.57566    31257.312 
  970000    297.27164   -13552.407            0   -11749.172    220.16308    30410.006 
  980000    295.36146   -13477.839            0   -11686.192    8.8497206    30362.403 
  990000    290.76508   -13673.646            0    -11909.88    -275.5033    30833.699 
 1000000    297.67254   -13559.559            0   -11753.893    56.056295    30585.333 
 1010000    299.41967   -13533.567            0   -11717.303      234.486    30629.802 
 1020000     301.8314   -13540.598            0   -11709.704   -471.09526    31081.137 
 1030000    304.05225   -13557.446            0   -11713.081    794.92431    30473.467 
 1040000    289.78148   -13553.434            0   -11795.635    233.70563    30297.067 
 1050000    295.28883   -13648.658            0   -11857.451     597.5261    30305.445 
 1060000     299.4298   -13654.737            0   -11838.411     190.6489    30942.795 
 1070000    298.32897   -13615.922            0   -11806.274   -165.92906    30726.417 
 1080000    297.79447   -13546.724            0   -11740.318   -681.29243    30508.566 
 1090000    305.65659   -13554.948            0   -11700.851    123.09361    30615.562 
 1100000    300.78896   -13535.783            0   -11711.212   -275.44027    30555.282 
 1110000    297.71161   -13699.331            0   -11893.428    184.04259    30502.704 
 1120000    300.38206   -13542.821            0   -11720.719   -580.68004    30696.905 
 1130000    295.83948   -13603.718            0   -11809.171   -246.94037    30254.581 
 1140000    306.87013   -13680.444            0   -11818.985    645.86751     30356.93 
 1150000    304.71143   -13620.518            0   -11772.154    29.067942    31023.128 
 1160000    291.86893   -13608.395            0   -11837.933    853.73803    30179.502 
 1170000    307.73091   -13582.692            0   -11716.012   -261.82058    30778.283 
 1180000      297.953   -13586.201            0   -11778.833   -835.19178    31255.357 
 1190000    294.57713   -13574.606            0   -11787.716    759.39858    30469.457 
 1200000    295.40656   -13586.543            0   -11794.622   -639.11335    30475.316 
 1210000    296.20283   -13696.059            0   -11899.308   -94.480256    30335.052 
 1220000    300.45978   -13615.717            0   -11793.143   -115.59345    30446.829 
 1230000    302.48084   -13525.123            0   -11690.289    306.97347    30417.456 
 1240000    300.67386    -13620.08            0   -11796.208   -341.27388    30953.515 
 1250000    304.84434    -13572.65            0    -11723.48    477.20953    30832.708 
 1260000    292.56043   -13655.406            0    -11880.75    134.82812    30324.828 
 1270000    298.34652     -13647.2            0   -11837.445   -250.61882    30619.649 
 1280000    308.96076   -13587.326            0   -11713.186    605.62993    30652.532 
 1290000    293.74344    -13578.76            0   -11796.927   -32.288798    30456.174 
 1300000     296.7043     -13559.4            0   -11759.607   -402.12978    30862.398 
 1310000    299.64049   -13589.435            0   -11771.832    200.90501    30595.675 
 1320000    303.05261   -13563.755            0   -11725.453   -121.47275     30706.69 
 1330000    299.57003   -13493.027            0   -11675.851   -151.67237    30680.281 
 1340000    297.77306   -13700.554            0   -11894.278   -694.46944    30387.194 
 1350000    306.61295   -13502.496            0   -11642.598   -614.82784    30925.605 
 1360000    293.25452   -13522.243            0   -11743.376   -402.52733     30431.11 
 1370000    307.13706   -13544.009            0   -11680.932    396.66472    30229.122 
 1380000     307.4942   -13574.716            0   -11709.472   -547.98835    30839.187 
 1390000    301.58593   -13491.091            0   -11661.686   -54.212409    30880.381 
 1400000    303.49544   -13665.735            0   -11824.747   -296.23128    30657.735 
 1410000    287.30298   -13673.753            0   -11930.988    87.395002    30297.199 
 1420000    291.04134    -13567.95            0   -11802.508    16.342095    30374.749 
 1430000    296.18522   -13591.793            0   -11795.149   -634.41409    30769.791 
 1440000    301.13252   -13497.502            0   -11670.848    493.77002    30582.545 
 1450000    302.16336   -13550.083            0   -11717.175    -342.6557    30550.184 
 1460000    298.89961   -13620.786            0   -11807.676   -382.53492     30484.77 
 1470000    298.66095    -13584.75            0   -11773.088    765.34947    30432.345 
 1480000     298.2394   -13615.896            0   -11806.791    187.27525    30429.881 
 1490000     297.2959   -13641.923            0   -11838.541    577.81981    30743.372 
 1500000    297.10599   -13652.511            0   -11850.281    447.92411    30313.646 
 1510000    296.64568   -13556.408            0    -11756.97   -34.462488    30482.327 
 1520000    298.46479   -13599.384            0   -11788.912    471.14287    30428.282 
 1530000    304.35915   -13572.926            0     -11726.7    269.86011    30962.327 
 1540000    294.56845   -13630.618            0   -11843.781   -248.35825    30696.026 
 1550000    297.15477   -13632.111            0   -11829.586   -612.89832    30728.737 
 1560000    292.07613   -13529.252            0   -11757.533   -234.73224    30657.037 
 1570000    294.19048   -13582.255            0   -11797.711    363.56655    30415.648 
 1580000    294.38771   -13551.059            0   -11765.318    239.05732    30662.445 
 1590000    297.14812   -13569.069            0   -11766.584    631.49651    30386.641 
 1600000    293.82276   -13635.753            0   -11853.439   -732.11519    30653.163 
 1610000    296.98436   -13641.717            0   -11840.225    621.23454    30275.649 
 1620000    298.79836   -13547.408            0   -11734.912    440.89539    30529.097 
 1630000    296.66862   -13642.614            0   -11843.037    25.790284    30001.231 
 1640000    304.71771   -13614.026            0   -11765.624   -141.43764    30419.465 
 1650000    293.63982   -13577.032            0   -11795.828    835.34285    30212.155 
 1660000    292.19501   -13495.822            0   -11723.382    580.71332    30716.882 
 1670000    297.80146   -13604.549            0   -11798.101   -121.58041    30054.981 
 1680000    301.04686   -13615.991            0   -11789.856    433.86509    30581.134 
 1690000    297.35639   -13680.174            0   -11876.425   -500.85746    30361.701 
 1700000    293.30441   -13614.598            0   -11835.429   -448.08986    30619.991 
 1710000    300.66617   -13539.358            0   -11715.533    685.14905    30414.705 
 1720000    299.37544   -13629.011            0   -11813.015   -370.71716    30201.216 
 1730000    300.31232   -13695.406            0   -11873.727    514.26853     30182.07 
 1740000    303.60035    -13665.57            0   -11823.946    534.74933    30440.534 
 1750000    287.66425   -13567.521            0   -11822.565   -498.77429    31078.827 
 1760000    301.24001   -13495.371            0   -11668.064    -439.5621    30664.757 
 1770000    297.90738   -13616.404            0   -11809.313   -108.99661    30661.063 
 1780000    295.12893   -13610.493            0   -11820.256    626.10549    30190.175 
 1790000    305.89057   -13585.263            0   -11729.747    412.90944    30308.996 
 1800000    290.89608   -13542.617            0   -11778.056     644.4002    30026.262 
 1810000    297.53385   -13539.748            0   -11734.923   -93.366713    30344.409 
 1820000    299.22365   -13626.129            0   -11811.053   -58.299389    30334.032 
 1830000    303.00977   -13590.748            0   -11752.706    515.84107     30789.49 
 1840000    292.75697   -13502.803            0   -11726.954     168.2838    30611.317 
 1850000    301.65484    -13523.57            0   -11693.747    749.25042    30422.279 
 1860000    295.67062   -13643.004            0   -11849.481    671.68157    30263.366 
 1870000    289.67331   -13679.477            0   -11922.334   -92.934582      30378.5 
 1880000    288.09324   -13557.816            0   -11810.257   -83.268832     30872.91 
 1890000     292.2672   -13574.629            0   -11801.751    100.60819    30157.003 
 1900000    302.52958    -13697.08            0   -11861.951    208.75953    30144.165 
 1910000    306.16105   -13528.845            0   -11671.688   -981.40746    30909.248 
 1920000     298.4897   -13504.694            0   -11694.071    857.03546    30612.295 
 1930000    302.09308   -13588.379            0   -11755.898   -92.076205    30895.052 
 1940000    297.95034   -13517.536            0   -11710.185   -646.89112    30606.347 
 1950000    296.82472    -13684.67            0   -11884.147    48.874407    30610.819 
 1960000    294.78768   -13595.008            0   -11806.841    68.419355    31012.684 
 1970000    294.48751   -13582.654            0   -11796.308    689.84129    30178.123 
 1980000    299.07947   -13616.382            0   -11802.182   -485.31243    30792.662 
 1990000    300.45226   -13614.901            0   -11792.373    196.48686     30338.82 
 2000000    297.63894   -13526.541            0   -11721.078    75.953751     30501.32 
 2010000    299.96777   -13543.991            0   -11724.402    587.14901    30740.045 
 2020000    304.59394    -13580.19            0   -11732.539   -556.84686    30832.485 
 2030000    305.39958   -13675.871            0   -11823.333   -416.45948    30558.583 
 2040000    299.54785   -13475.605            0   -11658.563   -743.46318    30647.505 
 2050000    290.32846   -13589.413            0   -11828.295   -737.60498    30868.163 
 2060000    291.74843   -13677.097            0   -11907.366    521.22172    30328.235 
 2070000    287.65635   -13559.097            0   -11814.189   -351.25233     30751.41 
 2080000    297.70163   -13619.847            0   -11814.004    241.12588    30808.032 
 2090000    303.20987   -13604.832            0   -11765.577    522.84505     30120.85 
 2100000    303.58973   -13582.343            0   -11740.783   -466.58922     30572.42 
 2110000    309.95193    -13637.32            0   -11757.168   -159.03172     30639.28 
 2120000    306.65903   -13497.075            0   -11636.897    531.89114    30859.048 
 2130000    297.61136   -13544.639            0   -11739.344   -740.29854    31106.659 
 2140000    297.27505   -13553.215            0    -11749.96   -632.44294    30623.458 
 2150000    301.17383   -13568.909            0   -11742.004    144.82915    30826.078 
 2160000    289.76422   -13659.558            0   -11901.864   -847.23096    30774.779 
 2170000    303.36396   -13601.816            0   -11761.626   -350.49835    30623.972 
 2180000    293.34142   -13633.337            0   -11853.943   -595.15025    30651.627 
 2190000    304.03761   -13630.043            0   -11785.767    427.89027    30207.891 
 2200000    288.74148     -13736.8            0   -11985.309     487.8655    30682.684 
 2210000    294.78488   -13595.471            0   -11807.321    86.746393    30696.689 
 2220000    303.01242   -13571.853            0   -11733.795   -543.05362    30982.358 
 2230000    293.68523   -13571.709            0    -11790.23    -123.4599    30121.323 
 2240000    301.07081   -13559.557            0   -11733.277    1303.1599    30635.713 
 2250000     289.4485   -13639.033            0   -11883.253   -152.04688    30753.863 
 2260000    292.88258   -13547.763            0   -11771.152   -287.86257    30821.029 
 2270000    300.24622   -13637.438            0    -11816.16    351.30411    30446.311 
 2280000    288.40965   -13616.625            0   -11867.147   -199.27413    30564.956 
 2290000    302.44615   -13633.261            0   -11798.638    -395.2991    30539.439 
 2300000    299.58357   -13694.232            0   -11876.974    133.40833     30533.31 
 2310000    299.03649   -13469.201            0   -11655.261   -336.38006    30856.531 
 2320000    291.69016   -13599.129            0   -11829.751    371.13377     30852.79 
 2330000    296.16953    -13608.33            0   -11811.781    257.65184    30253.673 
 2340000    295.74742   -13480.277            0   -11686.289    349.89132    30505.637 
 2350000     292.1792    -13669.52            0   -11897.176    -863.0514    30885.663 
 2360000     300.3433   -13653.075            0   -11831.208   -863.87986    30998.792 
 2370000    305.06945   -13620.538            0   -11770.002   -219.75484    30732.463 
 2380000    298.09485   -13587.494            0   -11779.266    170.73674    30419.314 
 2390000    301.97606   -13626.851            0    -11795.08    393.62019    30514.986 
 2400000    298.50921    -13559.31            0   -11748.568    89.887963    30514.758 
 2410000    314.50749   -13594.428            0   -11686.642   -169.21158     30951.29 
 2420000    293.29114   -13702.759            0    -11923.67    464.91012    30642.365 
 2430000    286.36261   -13550.675            0   -11813.614   -376.50308    30818.666 
 2440000    300.05968   -13595.447            0   -11775.301    -130.8844    30681.462 
 2450000    304.54247   -13490.108            0   -11642.769    330.80862    30331.994 
 2460000    294.30158   -13510.043            0   -11724.825    21.602415    30866.386 
 2470000    294.11601    -13638.98            0   -11854.888   -140.87122    30583.497 
 2480000    294.88975    -13631.27            0   -11842.484   -723.86031    30393.023 
 2490000    295.15514    -13601.93            0   -11811.534   -700.55893    30720.326 
 2500000    291.73342   -13544.668            0   -11775.028    116.58946    30793.672 
 2510000    297.38324    -13542.48            0   -11738.568   -225.39923    30564.166 
 2520000     299.0793   -13562.157            0   -11747.958   -908.10238    30930.401 
 2530000    296.09368   -13621.847            0   -11825.758    532.38543    30559.041 
 2540000     297.3413   -13568.824            0   -11765.167   -963.22809    30889.556 
 2550000    300.66992   -13586.345            0   -11762.497    102.95726     30546.37 
 2560000    293.17209   -13696.377            0    -11918.01     406.9458    30577.407 
 2570000    306.65035   -13610.335            0    -11750.21    69.038524    30958.252 
 2580000    292.30128   -13534.219            0   -11761.134    1761.4602    29976.105 
 2590000    293.19108   -13620.827            0   -11842.345    145.09819    30252.825 
 2600000    300.26732   -13714.522            0   -11893.116   -43.424735     30931.39 
 2610000    300.11678   -13640.185            0   -11819.692    1011.3208    30227.162 
 2620000    297.21584   -13681.414            0   -11878.518    389.38771    30583.107 
 2630000    298.00686   -13623.015            0   -11815.321   -313.76807    30804.663 
 2640000     287.2405    -13630.36            0   -11887.974    302.91736    30630.375 
 2650000     297.4476   -13530.978            0   -11726.677   -831.25562    30962.636 
 2660000    288.03947   -13573.871            0   -11826.638   -202.89734    30634.817 
 2670000    299.09135   -13535.773            0     -11721.5    260.07629    30339.856 
 2680000    289.26403   -13600.575            0   -11845.914    490.49031    30208.953 
 2690000     307.4163   -13657.732            0   -11792.961    669.44499    30486.733 
 2700000    295.87019   -13650.325            0   -11855.592    589.44289    30260.187 
 2710000      301.165   -13622.851            0   -11795.999   -289.51525    30394.158 
 2720000    295.70529   -13677.046            0   -11883.313   -389.21626    30920.154 
 2730000    296.21672    -13534.15            0   -11737.314    140.26481    30603.576 
 2740000    289.69583   -13499.435            0   -11742.155    215.60665    30320.162 
 2750000    296.80229   -13614.608            0    -11814.22     1010.417    30113.398 
 2760000     293.9956   -13486.536            0   -11703.174    902.25995    30328.115 
 2770000    300.84963   -13582.999            0   -11758.061    267.15502     30605.94 
 2780000    296.28207   -13581.993            0   -11784.761    72.207203    30220.815 
 2790000    289.01274   -13611.711            0   -11858.575   -199.64299    30487.636 
 2800000    295.46956   -13602.183            0    -11809.88   -376.31448     30535.52 
 2810000    284.78258   -13550.628            0   -11823.151    403.22857     30347.36 
 2820000    297.30225   -13656.654            0   -11853.234    502.08734    30612.259 
 2830000    308.08954   -13547.445            0    -11678.59    440.35026    30348.931 
 2840000    294.60414   -13611.282            0   -11824.228   -232.37973    30417.264 
 2850000     297.2045   -13528.178            0   -11725.351   -217.96963     30629.13 
 2860000    299.89266   -13517.828            0   -11698.694   -266.54666    30429.235 
 2870000    292.09962   -13645.834            0   -11873.973    103.89514    31020.218 
 2880000    296.10424   -13634.191            0   -11838.038    106.80034    30998.273 
 2890000    294.01785   -13603.812            0   -11820.315   -713.58374    30760.551 
 2900000    297.00926   -13544.428            0   -11742.786   -462.69367     30451.25 
 2910000    292.25177   -13592.453            0   -11819.669    187.74117    30276.152 
 2920000    308.42376   -13636.721            0   -11765.839   -188.65162     30363.25 
 2930000     305.3372   -13512.286            0   -11660.126   -150.65311    30618.427 
 2940000    295.67756   -13693.829            0   -11900.264   -347.19743     30628.48 
 2950000    300.03084   -13559.617            0   -11739.646   -86.516227    30483.231 
 2960000    299.02451   -13685.904            0   -11872.037   -691.63507    30493.653 
 2970000    295.89561   -13644.568            0   -11849.681    297.27139     30331.58 
 2980000    292.15802   -13625.294            0   -11853.079   -706.09557    30898.677 
 2990000    293.73726   -13653.307            0   -11871.511    69.356206    30511.465 
 3000000    292.55181   -13591.841            0   -11817.237    529.61339    30418.294 
 3010000    289.20643   -13650.264            0   -11895.953    1070.5459     30401.53 
 3020000    288.80703   -13519.263            0   -11767.375    295.23891    30381.536 
 3030000    311.60215   -13716.629            0   -11826.466    278.31369    30672.312 
 3040000     286.6282   -13598.876            0   -11860.204   -594.03888    30946.427 
 3050000    295.00251   -13575.042            0   -11785.572   -398.32621    30792.318 
 3060000    296.09845   -13606.494            0   -11810.376   -513.57353    30533.316 
 3070000    292.95728   -13546.335            0   -11769.271   -420.70484      31069.4 
 3080000    288.98868   -13580.505            0   -11827.515    105.21511    30668.005 
 3090000    289.59143   -13582.458            0   -11825.811   -952.24541    30821.588 
 3100000    307.96213   -13568.278            0   -11700.196    728.80804     30548.38 
 3110000    290.01719   -13578.364            0   -11819.135    639.19413     30533.21 
 3120000    290.36684   -13676.758            0   -11915.408   -840.21934    30862.786 
 3130000    293.18406   -13611.178            0   -11832.738   -181.19534    30275.444 
 3140000     304.6035   -13644.528            0   -11796.819    34.762587    30573.274 
 3150000    291.92156   -13575.963            0   -11805.182    424.21322    30514.425 
 3160000    295.83399   -13567.071            0   -11772.558     351.6168    30926.395 
 3170000    301.35017   -13613.194            0    -11785.22    -545.1183    30666.791 
 3180000    300.36669   -13585.033            0   -11763.024    435.82971    30286.489 
 3190000    299.22533   -13621.224            0   -11806.139    84.449731    30144.997 
 3200000    297.57355   -13518.258            0   -11713.192    265.78165    30666.042 
 3210000    298.90839   -13606.346            0   -11793.184   -609.23827    30488.313 
 3220000    299.21683   -13668.006            0   -11852.973    596.61223    30235.989 
 3230000    292.08372   -13510.663            0   -11738.898   -368.09179    30216.394 
 3240000    295.90572   -13677.564            0   -11882.615     255.5175    30599.233 
 3250000    292.22766    -13613.97            0   -11841.332    98.412437    30693.853 
 3260000    301.89735   -13626.898            0   -11795.604     319.3518    30866.213 
 3270000    305.01744   -13604.185            0   -11753.965   -280.88394    30613.478 
 3280000     310.9903    -13682.61            0   -11796.158   -180.58436    30473.787 
 3290000    302.92253   -13584.546            0   -11747.034   -132.22071     30229.12 
 3300000    294.99713   -13607.212            0   -11817.774    794.59494     30496.94 
 3310000    315.38319   -13647.192            0   -11734.094      298.628    30758.176 
 3320000    303.11429   -13585.446            0    -11746.77   -667.00525    31207.852 
 3330000      306.521   -13618.595            0   -11759.255    182.79822    30563.296 
 3340000     295.5588    -13564.24            0   -11771.395   -425.25141    30748.416 
 3350000    295.49196   -13475.412            0   -11682.973    667.54052    30361.673 
 3360000    296.02864   -13619.833            0   -11824.139    718.40995    30398.137 
 3370000    296.95642   -13570.835            0   -11769.513      4.44264     30771.15 
 3380000    294.95287    -13592.16            0   -11802.991    683.50191    30189.486 
 3390000    296.75326   -13582.159            0   -11782.069    515.26314    31093.377 
 3400000    299.83166   -13607.821            0   -11789.057   -70.392467    30830.517 
 3410000    300.19073   -13515.884            0   -11694.942   -107.32209    30914.098 
 3420000    299.59155   -13567.126            0    -11749.82    451.63469    30687.556 
 3430000    296.92313   -13584.208            0   -11783.087   -301.99182    30884.106 
 3440000    304.68558   -13650.076            0   -11801.869   -149.45838    30932.733 
 3450000    287.76103   -13643.944            0   -11898.401    408.62091    30394.646 
 3460000    297.04915   -13644.131            0   -11842.246     79.58492    30426.367 
 3470000    293.67991   -13622.689            0   -11841.242   -494.90438    31026.234 
 3480000    289.85498   -13596.149            0   -11837.903   -284.04506    30614.833 
 3490000    301.04308   -13681.227            0   -11855.115    -669.7876    30811.481 
 3500000    294.24941   -13526.521            0    -11741.62   -123.31646    30678.682 
 3510000    299.62033   -13655.632            0   -11838.151    313.69448    30660.685 
 3520000     292.7039   -13578.968            0   -11803.441     397.4734    29897.457 
 3530000    298.23959    -13627.05            0   -11817.944   -301.77154    30253.192 
 3540000    312.24293   -13643.504            0   -11749.454    56.669205    30309.603 
 3550000    302.47055   -13486.895            0   -11652.125   -417.77286     30767.47 
 3560000    301.58112   -13553.215            0   -11723.839    -134.1061     30823.53 
 3570000    293.88519   -13535.946            0   -11753.253    135.02399    30387.483 
 3580000    294.63991   -13550.207            0   -11762.937    742.43215    30117.926 
 3590000    294.83663    -13538.17            0   -11749.706   -1031.0923    31265.656 
 3600000    300.27006   -13509.312            0    -11687.89   -621.94485      30909.5 
 3610000    292.86974   -13565.327            0   -11788.795   -503.69004    30887.353 
 3620000    300.94799   -13583.714            0   -11758.179    473.11458    30816.084 
 3630000    289.51603   -13576.119            0    -11819.93   -158.00847    30573.465 
 3640000     294.6738    -13691.47            0   -11903.994   -596.57631    30559.785 
 3650000    298.83783   -13572.147            0   -11759.412   -98.907596    30444.699 
 3660000    293.37599   -13608.568            0   -11828.965   -483.50825    30502.836 
 3670000    296.25727   -13538.223            0   -11741.142     82.02957    30506.871 
 3680000    301.90096   -13530.721            0   -11699.405   -170.37132    30646.254 
 3690000    290.24359   -13566.261            0   -11805.658    -587.2215    30829.838 
 3700000    307.37059   -13643.026            0   -11778.532    371.32682    29918.572 
 3710000    294.12159   -13638.337            0   -11854.211    -411.0612    30986.553 
 3720000    295.74427   -13548.414            0   -11754.445   -153.03898    30504.144 
 3730000     295.9526   -13643.598            0   -11848.365   -257.85529    30549.106 
 3740000    299.84823   -13625.335            0   -11806.471   -230.15302    30801.243 
 3750000    289.66979   -13504.973            0   -11747.851    207.51561    30748.331 
 3760000    292.00419   -13600.922            0    -11829.64   -367.99699    30492.475 
 3770000    305.66552    -13626.35            0   -11772.199    661.61777     30830.92 
 3780000    306.10565   -13648.876            0   -11792.055    107.90322    30552.003 
 3790000    309.15607   -13595.629            0   -11720.304   -295.41347    30550.267 
 3800000     292.0934   -13638.237            0   -11866.414    375.47123     30326.47 
 3810000    295.05778   -13616.502            0   -11826.696   -384.79311    30467.298 
 3820000    298.41633   -13701.756            0   -11891.578    114.39104    30528.701 
 3830000    297.65723   -13492.291            0   -11686.718   -971.38594    30992.367 
 3840000    299.36043   -13544.989            0   -11729.084   -110.95312    30809.197 
 3850000     298.1708   -13594.786            0   -11786.097    298.26328    30727.033 
 3860000    298.92781   -13637.927            0   -11824.647    -567.4938    30246.833 
 3870000    295.75354   -13566.543            0   -11772.518    221.18238    30769.863 
 3880000    293.13766   -13565.485            0   -11787.327    -396.6611    30694.983 
 3890000    294.62642   -13488.666            0   -11701.477    -592.1716    31107.905 
 3900000    296.36687     -13661.5            0   -11863.754    -110.9697    30738.694 
 3910000    294.77337   -13493.092            0   -11705.012   -920.76236    30701.911 
 3920000    296.40224   -13660.155            0   -11862.194    280.91504    30604.081 
 3930000    298.60355   -13625.542            0   -11814.229    1563.8935    30159.366 
 3940000    298.45364   -13626.345            0   -11815.941   -229.87096    30889.896 
 3950000    296.80224   -13615.106            0   -11814.719   -393.79632    30982.655 
 3960000    304.36044   -13592.547            0   -11746.312    161.70106    30643.041 
 3970000    295.63505   -13580.557            0    -11787.25   -1596.0364    30743.859 
 3980000    296.75545   -13522.967            0   -11722.864    599.86531    30647.841 
 3990000    297.41229    -13610.45            0   -11806.363   -634.26351    30725.535 
 4000000     289.0426   -13566.344            0   -11813.026      126.285    31044.352 
 4010000    297.57061   -13641.713            0   -11836.665   -571.64194    30489.038 
 4020000    294.24991   -13653.943            0   -11869.038    560.83662    30784.617 
 4030000    296.93838   -13627.493            0   -11826.281   -15.005016    30480.305 
 4040000    299.63038   -13575.347            0   -11757.805   -177.38701    30254.719 
 4050000     296.9041   -13559.953            0   -11758.948    302.39019    30627.887 
 4060000    298.42838   -13574.446            0   -11764.195   -119.08508    30669.676 
 4070000    312.04046   -13554.803            0   -11661.982    772.47291    30488.182 
 4080000    300.62204   -13607.795            0   -11784.237   -213.81484    30491.897 
 4090000     298.5595   -13552.654            0   -11741.608    270.93333    30431.546 
 4100000     307.9837   -13613.845            0   -11745.631   -177.98794    30863.217 
 4110000    300.21826   -13608.417            0   -11787.309      393.096    30234.776 
 4120000    301.47862   -13642.942            0   -11814.188     517.5925    30480.067 
 4130000    297.23975   -13522.709            0   -11719.668   -1078.4022    30541.782 
 4140000    297.58292   -13593.483            0    -11788.36     79.80285    30572.028 
 4150000    291.69654   -13626.297            0   -11856.881    164.43956     30270.33 
 4160000    293.50011   -13599.005            0   -11818.648   -997.70275    30641.705 
 4170000    295.18471   -13586.682            0   -11796.107   -72.112123    30791.961 
 4180000    300.31407   -13491.228            0   -11669.538     21.51762    30902.196 
 4190000    300.45521   -13615.115            0   -11792.569   -37.466722    30453.603 
 4200000    300.45755   -13546.199            0   -11723.639    439.74506    30589.924 
 4210000    302.14234     -13607.6            0    -11774.82   -57.918026    30654.415 
 4220000    301.73008   -13545.059            0    -11714.78    813.47964     30768.48 
 4230000    295.44801   -13598.624            0   -11806.452    187.42157    30687.208 
 4240000    294.52372   -13662.255            0   -11875.689   -686.99507    30341.501 
 4250000    304.48227   -13533.948            0   -11686.974    273.44902    30861.154 
 4260000    299.03839   -13615.016            0   -11801.064   -66.156936      30460.2 
 4270000     297.3001   -13602.397            0    -11798.99   -1506.7429    30765.334 
 4280000    307.76509   -13484.421            0   -11617.534   -8.2759597    30277.557 
 4290000    301.32414   -13604.083            0   -11776.266   -221.84093    30737.786 
 4300000    299.11328   -13602.862            0   -11788.456    508.67845    30305.913 
 4310000    293.66572   -13636.681            0    -11855.32    496.05318     30213.17 
 4320000    296.31024   -13493.255            0   -11695.852   -506.48229    30956.846 
 4330000     287.3914   -13568.683            0   -11825.382    -523.3035    31084.071 
 4340000    301.15895   -13471.495            0   -11644.681   -311.69799    30449.459 
 4350000    304.05557   -13558.921            0   -11714.535   -115.14323    30771.308 
 4360000    296.64394   -13589.993            0   -11790.567    72.722347    30375.146 
 4370000    300.73314   -13536.854            0   -11712.622   -7.3366945    30410.337 
 4380000    293.78626   -13511.884            0   -11729.792   -774.92371    30799.268 
 4390000    295.58759   -13634.327            0   -11841.308   -342.58347    30647.553 
 4400000    298.82824   -13550.632            0   -11737.955   -723.32541     30742.28 
 4410000    292.28479   -13623.718            0   -11850.734   -14.846607    29850.794 
 4420000    293.57814   -13635.869            0   -11855.039   -22.236842    30676.604 
 4430000    292.02553   -13559.736            0   -11788.324    110.87025    30302.423 
 4440000    294.89766    -13607.72            0   -11818.886    1132.0182    30146.551 
 4450000    310.55214   -13548.961            0   -11665.168   -143.34815    30634.163 
 4460000    292.02348   -13575.505            0   -11804.106    70.271703    30549.692 
 4470000    296.17865   -13517.642            0   -11721.038   -603.63826    30927.794 
 4480000    290.30853   -13600.869            0   -11839.873    166.00498    30735.083 
 4490000    298.50579   -13582.484            0   -11771.764   -175.77146    30740.621 
 4500000    298.16365   -13678.316            0   -11869.671   -64.211031    30400.824 
 4510000    308.29014   -13596.668            0   -11726.596    984.88799    30405.076 
 4520000    295.85204   -13500.305            0   -11705.682    167.26519    30399.445 
 4530000    298.03137   -13576.928            0   -11769.085    111.49866    30534.599 
 4540000    291.23508   -13627.572            0   -11860.955     403.3728    30646.401 
 4550000    298.93789   -13545.255            0   -11731.913    284.46994    30507.823 
 4560000    316.50137   -13661.095            0   -11741.214    635.37586    30330.052 
 4570000      304.244   -13583.011            0   -11737.483   -605.32316    30655.361 
 4580000    291.72045   -13610.128            0   -11840.567    93.050714    30574.805 
 4590000    300.65913   -13609.063            0    -11785.28   -42.924076    30516.963 
 4600000    292.78287   -13641.571            0   -11865.565    16.323271    30159.406 
 4610000    301.52632   -13692.552            0   -11863.509    295.00687    30303.752 
 4620000    302.79609   -13533.564            0   -11696.818    125.90061    31061.915 
 4630000    300.16585   -13655.465            0   -11834.675   -975.65665    30572.856 
 4640000    289.73211   -13554.734            0   -11797.234    -59.74609    30610.484 
 4650000    295.41923   -13579.658            0    -11787.66     612.6541    30539.003 
 4660000    303.93332   -13611.935            0   -11768.292    72.108767    30356.271 
 4670000    297.38523   -13526.418            0   -11722.495    15.205098    30631.423 
 4680000    297.80929   -13572.551            0   -11766.055   -617.66062    30577.365 
 4690000    300.82467   -13560.751            0   -11735.964    345.34993    30437.854 
 4700000    293.07491   -13584.524            0   -11806.747    191.50773    30396.898 
 4710000    302.63547   -13616.815            0   -11781.043    123.06198    31028.035 
 4720000    296.07625   -13549.091            0   -11753.107   -108.14294    30578.617 
 4730000    297.58506   -13630.502            0   -11825.366    374.24561    30415.714 
 4740000    300.96615   -13547.187            0   -11721.542    593.52341    30567.501 
 4750000    296.59807   -13600.474            0   -11801.325   -139.64248    30606.819 
 4760000    294.83695   -13655.635            0    -11867.17   -564.94238    30568.855 
 4770000    299.15886   -13523.276            0   -11708.594   -753.07296     30977.04 
 4780000    297.36217   -13617.247            0   -11813.463    390.31384    30180.812 
 4790000    300.01563   -13640.809            0    -11820.93   -288.40572    30592.185 
 4800000    299.07766   -13588.961            0   -11774.772   -985.84946    30676.663 
 4810000    308.35731   -13565.707            0   -11695.228    323.28588    30037.395 
 4820000     300.5633   -13539.006            0   -11715.804    354.55312    30830.601 
 4830000    298.37484   -13566.969            0   -11757.042   -821.16767     30841.47 
 4840000     300.5946    -13553.38            0   -11729.989    454.76558    30256.686 
 4850000    297.27305   -13582.083            0    -11778.84       121.83    30499.329 
 4860000    294.23576   -13567.536            0   -11782.717     152.7059     30367.59 
 4870000    298.08184   -13445.475            0   -11637.326   -1260.1492    31256.926 
 4880000    296.93583   -13601.963            0   -11800.766      1170.29    30518.667 
 4890000    294.93166   -13583.932            0   -11794.892   -506.35389     31019.37 
 4900000    297.64405   -13525.136            0   -11719.642   -59.692986    30294.073 
 4910000    290.24493   -13540.546            0   -11779.936   -151.18857    30338.765 
 4920000    304.78062   -13510.474            0   -11661.691    331.05388    30651.866 
 4930000    287.65863   -13679.907            0   -11934.984    -540.1521    30434.824 
 4940000    301.35516    -13682.87            0   -11854.865   -111.86079    30267.452 
 4950000    296.43757   -13633.862            0   -11835.687    324.43675    30593.425 
 4960000    293.22261   -13628.309            0   -11849.636    145.86109    30366.957 
 4970000    300.59508   -13693.208            0   -11869.813    448.47223    30703.546 
 4980000    295.73329    -13608.24            0   -11814.337     429.1146    30419.821 
 4990000    301.80142   -13539.482            0    -11708.77     261.4234    30618.872 
 5000000    301.11714   -13668.665            0   -11842.104    818.12043    30696.226 
Loop time of 5234.7 on 128 procs for 5000000 steps with 3036 atoms

Performance: 165.052 ns/day, 0.145 hours/ns, 955.164 timesteps/s
99.4% CPU use with 128 MPI tasks x no OpenMP threads

MPI task timing breakdown:
Section |  min time  |  avg time  |  max time  |%varavg| %total
---------------------------------------------------------------
Pair    | 1174.3     | 1408.9     | 1617.4     | 291.2 | 26.92
Bond    | 0.48499    | 0.58908    | 1.0082     |  12.0 |  0.01
Kspace  | 2145.4     | 2339.7     | 2550.7     | 221.0 | 44.70
Neigh   | 142.32     | 146.57     | 150.8      |  28.7 |  2.80
Comm    | 546.35     | 615.04     | 692.77     | 138.0 | 11.75
Output  | 0.041209   | 0.043081   | 0.044565   |   0.4 |  0.00
Modify  | 536.18     | 641.44     | 689.73     | 140.2 | 12.25
Other   |            | 82.37      |            |       |  1.57

Nlocal:    23.7188 ave 33 max 18 min
Histogram: 7 10 33 19 25 10 15 2 4 3
Nghost:    2936.61 ave 2997 max 2885 min
Histogram: 4 3 18 22 24 35 10 7 4 1
Neighs:    9150.78 ave 13273 max 6194 min
Histogram: 7 12 18 24 26 21 12 3 1 4

Total # of neighbors = 1171300
Ave neighs/atom = 385.804
Ave special neighs/atom = 1.97628
Neighbor list builds = 438106
Dangerous builds = 0
reset_timestep 0

#################### 2) Obtaining average volume in NPT ######################
# Getting the average volume of the system
variable Volume equal vol
fix VoluAve all ave/time 1 ${Npnpt} ${Npnpt} v_Volume file volume.dat
fix VoluAve all ave/time 1 5000000 ${Npnpt} v_Volume file volume.dat
fix VoluAve all ave/time 1 5000000 5000000 v_Volume file volume.dat


# Thermo style for outputing system properties to the log file
thermo_style custom density
thermo_modify flush yes

variable Dens equal density
fix DensAve all ave/time 1 ${NBR} ${NBR} v_Dens file density.dat
fix DensAve all ave/time 1 100000 ${NBR} v_Dens file density.dat
fix DensAve all ave/time 1 100000 100000 v_Dens file density.dat

run ${Npnpt}
run 5000000
PPPM initialization ...
  extracting TIP4P info from pair style
  using 12-bit tables for long-range coulomb (../kspace.cpp:321)
  G vector (1/distance) = 0.312057
  grid = 30 30 30
  stencil order = 5
  estimated absolute RMS force accuracy = 0.00340798
  estimated relative force accuracy = 1.0263e-05
  using double precision FFTs
  3d grid and FFT values/proc = 2475 256
Per MPI rank memory allocation (min/avg/max) = 8.201 | 8.213 | 8.22 Mbytes
Density 
    1.031459 
   1.0335915 
   1.0315656 
   1.0433294 
   1.0262764 
   1.0295029 
   1.0283093 
    1.031351 
   1.0493536 
   1.0396852 
   1.0417056 
   1.0327246 
   1.0333517 
   1.0363323 
   1.0459503 
   1.0518618 
   1.0387668 
   1.0288269 
   1.0398045 
   1.0522409 
   1.0396032 
   1.0245881 
   1.0418882 
   1.0360109 
   1.0184548 
   1.0482644 
   1.0223097 
   1.0321144 
   1.0299703 
   1.0422387 
   1.0324222 
   1.0354256 
   1.0257739 
   1.0422451 
   1.0247567 
   1.0362727 
   1.0328441 
    1.032589 
   1.0354143 
   1.0260321 
   1.0387071 
   1.0412583 
   1.0344215 
   1.0419317 
   1.0429683 
   1.0223942 
    1.017338 
   1.0284865 
   1.0191243 
   1.0496435 
   1.0532419 
   1.0387958 
   1.0259074 
   1.0250767 
    1.041038 
   1.0224098 
   1.0274266 
   1.0399677 
    1.045283 
   1.0320355 
   1.0282665 
   1.0355843 
   1.0404467 
   1.0389582 
   1.0403634 
   1.0309063 
   1.0400245 
   1.0388471 
   1.0262222 
   1.0443364 
   1.0291954 
   1.0405634 
   1.0328317 
   1.0339399 
   1.0392909 
   1.0300747 
   1.0373159 
   1.0397891 
   1.0515304 
   1.0272355 
   1.0329011 
   1.0377555 
   1.0236279 
   1.0416426 
    1.047831 
   1.0360449 
   1.0362015 
   1.0324805 
   1.0519255 
   1.0442584 
   1.0475859 
   1.0425109 
   1.0424568 
   1.0474082 
   1.0361043 
   1.0537948 
   1.0324754 
   1.0464286 
   1.0335868 
   1.0263234 
   1.0492349 
   1.0287683 
   1.0450673 
   1.0425152 
   1.0281167 
   1.0308456 
   1.0443165 
   1.0378626 
   1.0339123 
   1.0248257 
   1.0419576 
   1.0344119 
   1.0332845 
   1.0130703 
   1.0234306 
   1.0461884 
   1.0253609 
   1.0415874 
   1.0382679 
   1.0433608 
   1.0308916 
   1.0374161 
   1.0473085 
   1.0215593 
   1.0490266 
   1.0293972 
   1.0356712 
   1.0451438 
   1.0491962 
   1.0395632 
   1.0353052 
   1.0421147 
   1.0288829 
   1.0291197 
   1.0412609 
   1.0338736 
   1.0438043 
   1.0311626 
   1.0289514 
   1.0256885 
   1.0232641 
   1.0413798 
   1.0389861 
   1.0281049 
   1.0323732 
   1.0170436 
   1.0414568 
   1.0406758 
   1.0443115 
    1.038683 
   1.0345306 
   1.0591259 
   1.0488856 
   1.0373706 
   1.0341469 
    1.022082 
   1.0377216 
   1.0366841 
   1.0263489 
   1.0271047 
   1.0406876 
   1.0505728 
   1.0214454 
   1.0350503 
   1.0294853 
   1.0499316 
   1.0392225 
   1.0366854 
    1.044614 
   1.0203273 
   1.0323198 
   1.0309455 
   1.0341099 
   1.0424939 
    1.020665 
   1.0263513 
   1.0279015 
   1.0312696 
   1.0369248 
   1.0477841 
   1.0222184 
    1.041445 
   1.0361763 
   1.0148961 
   1.0481989 
   1.0396548 
   1.0252419 
    1.038926 
   1.0343978 
   1.0243853 
   1.0352209 
   1.0339117 
    1.045477 
   1.0347832 
   1.0292441 
   1.0413213 
   1.0364687 
   1.0223499 
   1.0233895 
   1.0190836 
   1.0257787 
   1.0216577 
   1.0342122 
   1.0256289 
   1.0480584 
   1.0368768 
   1.0330546 
   1.0241281 
   1.0336837 
   1.0427747 
   1.0388627 
   1.0357914 
   1.0324828 
   1.0370251 
   1.0457583 
   1.0391799 
   1.0356269 
   1.0353376 
   1.0323659 
   1.0518916 
   1.0062439 
   1.0345999 
   1.0364738 
   1.0276444 
   1.0351424 
   1.0171259 
   1.0304905 
   1.0347278 
   1.0208148 
   1.0139934 
   1.0487188 
   1.0425618 
   1.0236923 
   1.0278018 
   1.0175718 
   1.0427438 
    1.026605 
   1.0263404 
    1.030469 
   1.0495955 
    1.027174 
   1.0311531 
   1.0564979 
   1.0407527 
   1.0382606 
   1.0464007 
   1.0392795 
   1.0438618 
   1.0218221 
   1.0382689 
   1.0356241 
   1.0346855 
   1.0318782 
   1.0067433 
   1.0403771 
    1.020691 
   1.0339442 
    1.035733 
   1.0326501 
   1.0379635 
   1.0357502 
   1.0513479 
    1.059548 
   1.0450317 
   1.0420272 
   1.0302516 
   1.0277257 
   1.0424971 
   1.0356755 
   1.0427142 
   1.0507577 
   1.0305218 
    1.038199 
   1.0320237 
   1.0360385 
   1.0366602 
   1.0249382 
   1.0305529 
   1.0373233 
   1.0152031 
   1.0290406 
   1.0388838 
   1.0438211 
   1.0300814 
   1.0361788 
   1.0146484 
   1.0513798 
   1.0157756 
   1.0272674 
    1.047407 
   1.0465219 
   1.0617129 
   1.0402217 
   1.0324961 
   1.0253412 
   1.0247467 
   1.0348005 
   1.0400737 
   1.0249477 
   1.0278537 
   1.0411032 
   1.0466027 
    1.031096 
   1.0444601 
   1.0446622 
   1.0307531 
    1.033274 
   1.0338637 
   1.0302166 
   1.0378308 
     1.03173 
   1.0327747 
   1.0478588 
   1.0356536 
   1.0288111 
    1.050681 
   1.0409985 
   1.0429715 
    1.042745 
    1.039804 
   1.0555209 
   1.0444583 
   1.0351494 
   1.0191736 
   1.0398242 
   1.0311644 
   1.0314581 
     1.02733 
   1.0417461 
   1.0259291 
   1.0434182 
   1.0221626 
   1.0283807 
   1.0299921 
   1.0438556 
    1.030772 
   1.0487916 
   1.0291042 
   1.0466785 
   1.0283152 
   1.0316354 
   1.0398305 
   1.0331791 
   1.0423955 
   1.0329878 
   1.0368859 
   1.0276857 
   1.0269644 
   1.0468784 
   1.0330683 
   1.0520338 
   1.0398571 
   1.0461803 
   1.0452128 
   1.0200545 
     1.03696 
   1.0301719 
   1.0200092 
   1.0303259 
    1.039643 
   1.0500801 
   1.0400333 
   1.0409515 
   1.0244177 
   1.0401582 
   1.0372387 
   1.0222614 
   1.0491725 
   1.0199143 
    1.046337 
   1.0497204 
     1.03776 
   1.0374599 
   1.0434126 
   1.0428961 
   1.0338804 
   1.0197014 
   1.0436017 
   1.0303159 
    1.041379 
   1.0259851 
   1.0446056 
    1.034625 
   1.0279924 
   1.0286289 
   1.0369738 
   1.0461898 
   1.0391603 
   1.0321352 
   1.0488964 
   1.0263391 
     1.03481 
   1.0308059 
   1.0398535 
   1.0396721 
   1.0516047 
   1.0339327 
    1.044979 
    1.044875 
   1.0243509 
   1.0528076 
   1.0309837 
   1.0382127 
   1.0293836 
   1.0187374 
   1.0438051 
   1.0348291 
   1.0346945 
   1.0527238 
   1.0255068 
    1.037257 
   1.0336469 
   1.0457513 
   1.0397705 
   1.0282325 
   1.0324838 
   1.0300541 
   1.0370846 
   1.0232483 
   1.0229099 
   1.0368761 
   1.0221064 
   1.0408086 
   1.0390591 
   1.0325604 
   1.0202505 
   1.0309442 
   1.0183223 
   1.0348312 
   1.0371265 
   1.0427473 
   1.0422779 
   1.0303603 
   1.0372831 
   1.0512494 
   1.0461243 
   1.0314753 
   1.0352844 
   1.0325093 
   1.0375087 
   1.0507287 
   1.0465023 
   1.0203728 
   1.0427362 
    1.037004 
   1.0229501 
   1.0398458 
   1.0382756 
   1.0295096 
   1.0386785 
   1.0363793 
   1.0363655 
   1.0232358 
   1.0379711 
    1.047167 
   1.0403999 
    1.023177 
   1.0260854 
   1.0356289 
   1.0380311 
   1.0230297 
   1.0448871 
   1.0305788 
    1.033522 
   1.0403391 
   1.0386268 
   1.0262903 
    1.039388 
    1.037699 
    1.023585 
   1.0408486 
    1.042971 
   1.0400943 
   1.0382002 
    1.033418 
   1.0436679 
   1.0333028 
    1.029228 
   1.0325698 
   1.0243285 
   1.0156468 
   1.0464412 
     1.03389 
   1.0118998 
   1.0495239 
   1.0334789 
   1.0264146 
   1.0271815 
   1.0299165 
   1.0427585 
   1.0372529 
   1.0541318 
   1.0357384 
     1.04022 
   1.0387988 
   1.0400738 
   1.0548961 
   1.0250106 
   1.0422743 
   1.0460885 
   1.0295047 
Loop time of 5277.6 on 128 procs for 5000000 steps with 3036 atoms

Performance: 163.711 ns/day, 0.147 hours/ns, 947.400 timesteps/s
99.4% CPU use with 128 MPI tasks x no OpenMP threads

MPI task timing breakdown:
Section |  min time  |  avg time  |  max time  |%varavg| %total
---------------------------------------------------------------
Pair    | 1168.4     | 1406       | 1614.9     | 289.5 | 26.64
Bond    | 0.48161    | 0.58045    | 0.95786    |  11.7 |  0.01
Kspace  | 2130.4     | 2332.4     | 2540       | 219.4 | 44.19
Neigh   | 142.73     | 147.2      | 151.44     |  28.6 |  2.79
Comm    | 542.83     | 612.07     | 689.07     | 139.3 | 11.60
Output  | 0.017787   | 0.023083   | 0.038285   |   2.2 |  0.00
Modify  | 590.62     | 696.03     | 744.76     | 134.7 | 13.19
Other   |            | 83.34      |            |       |  1.58

Nlocal:    23.7188 ave 33 max 15 min
Histogram: 3 6 11 28 16 22 27 8 5 2
Nghost:    2942.88 ave 2971 max 2911 min
Histogram: 2 5 11 15 20 23 17 24 7 4
Neighs:    9133.41 ave 12908 max 5764 min
Histogram: 7 7 19 16 19 23 22 7 6 2

Total # of neighbors = 1169076
Ave neighs/atom = 385.071
Ave special neighs/atom = 1.97628
Neighbor list builds = 438201
Dangerous builds = 0
reset_timestep 0

#################### 3) Initializing the NVT ensemble ####################
# scaling the size of the system to the average volume
variable sidesize equal (f_VoluAve^(1.0/3.0))    # get the volume
variable xlow equal xlo
variable ylow equal ylo
variable zlow equal zlo
variable xhig equal (xlo+${sidesize})
variable xhig equal (xlo+31.2773931558094)
variable yhig equal (ylo+${sidesize})
variable yhig equal (ylo+31.2773931558094)
variable zhig equal (zlo+${sidesize})
variable zhig equal (zlo+31.2773931558094)
change_box all x final ${xlow} ${xhig} y final ${ylow} ${yhig} z final ${zlow} ${zhig}
change_box all x final 0.597133684067591 ${xhig} y final ${ylow} ${yhig} z final ${zlow} ${zhig}
change_box all x final 0.597133684067591 31.874526839877 y final ${ylow} ${yhig} z final ${zlow} ${zhig}
change_box all x final 0.597133684067591 31.874526839877 y final 0.597133684067591 ${yhig} z final ${zlow} ${zhig}
change_box all x final 0.597133684067591 31.874526839877 y final 0.597133684067591 31.874526839877 z final ${zlow} ${zhig}
change_box all x final 0.597133684067591 31.874526839877 y final 0.597133684067591 31.874526839877 z final 0.597133684067591 ${zhig}
change_box all x final 0.597133684067591 31.874526839877 y final 0.597133684067591 31.874526839877 z final 0.597133684067591 31.874526839877
  orthogonal box = (0.597134 0.597134 0.597134) to (31.8745 31.9278 31.9278)
  orthogonal box = (0.597134 0.597134 0.597134) to (31.8745 31.8745 31.9278)
  orthogonal box = (0.597134 0.597134 0.597134) to (31.8745 31.8745 31.8745)
unfix DensAve
unfix VoluAve

# changing the ensemble to NVT
unfix integrate
fix integrate all nvt temp ${Temp} ${Temp} 100.0
fix integrate all nvt temp 298 ${Temp} 100.0
fix integrate all nvt temp 298 298 100.0


# Initializing the whole system with very small timesteps in the NVT ensemble
timestep 0.001
run ${Ninvtpre}
run 10000
PPPM initialization ...
  extracting TIP4P info from pair style
  using 12-bit tables for long-range coulomb (../kspace.cpp:321)
  G vector (1/distance) = 0.312133
  grid = 30 30 30
  stencil order = 5
  estimated absolute RMS force accuracy = 0.00339716
  estimated relative force accuracy = 1.02304e-05
  using double precision FFTs
  3d grid and FFT values/proc = 2475 256
Per MPI rank memory allocation (min/avg/max) = 8.201 | 8.213 | 8.22 Mbytes
Density 
   1.0347735 
   1.0347735 
Loop time of 11.4577 on 128 procs for 10000 steps with 3036 atoms

Performance: 0.075 ns/day, 318.271 hours/ns, 872.772 timesteps/s
99.2% CPU use with 128 MPI tasks x no OpenMP threads

MPI task timing breakdown:
Section |  min time  |  avg time  |  max time  |%varavg| %total
---------------------------------------------------------------
Pair    | 1.3405     | 2.1118     | 3.2829     |  25.5 | 18.43
Bond    | 0.00072716 | 0.00088442 | 0.0016493  |   0.0 |  0.01
Kspace  | 4.4865     | 5.7462     | 7.6474     |  20.1 | 50.15
Neigh   | 0          | 0          | 0          |   0.0 |  0.00
Comm    | 1.0588     | 2.3199     | 2.4761     |  19.5 | 20.25
Output  | 3.8682e-05 | 4.7555e-05 | 8.015e-05  |   0.0 |  0.00
Modify  | 1.085      | 1.1673     | 1.2197     |   3.0 | 10.19
Other   |            | 0.1116     |            |       |  0.97

Nlocal:    23.7188 ave 33 max 15 min
Histogram: 2 8 11 30 13 22 28 7 5 2
Nghost:    2955.3 ave 2978 max 2928 min
Histogram: 4 6 10 11 13 23 24 21 12 4
Neighs:    9181.07 ave 13230 max 6017 min
Histogram: 8 9 19 20 21 19 21 6 2 3

Total # of neighbors = 1175177
Ave neighs/atom = 387.081
Ave special neighs/atom = 1.97628
Neighbor list builds = 0
Dangerous builds = 0
timestep 0.01
run ${Ninvtpre}
run 10000
PPPM initialization ...
  extracting TIP4P info from pair style
  using 12-bit tables for long-range coulomb (../kspace.cpp:321)
  G vector (1/distance) = 0.312133
  grid = 30 30 30
  stencil order = 5
  estimated absolute RMS force accuracy = 0.00339716
  estimated relative force accuracy = 1.02304e-05
  using double precision FFTs
  3d grid and FFT values/proc = 2475 256
Per MPI rank memory allocation (min/avg/max) = 8.201 | 8.213 | 8.22 Mbytes
Density 
   1.0347735 
   1.0347735 
Loop time of 7.93167 on 128 procs for 10000 steps with 3036 atoms

Performance: 1.089 ns/day, 22.032 hours/ns, 1260.769 timesteps/s
99.4% CPU use with 128 MPI tasks x no OpenMP threads

MPI task timing breakdown:
Section |  min time  |  avg time  |  max time  |%varavg| %total
---------------------------------------------------------------
Pair    | 1.2628     | 2.0948     | 2.8381     |  23.8 | 26.41
Bond    | 0.00074309 | 0.00086963 | 0.0015997  |   0.0 |  0.01
Kspace  | 3.1155     | 3.9027     | 4.7159     |  17.1 | 49.20
Neigh   | 0.0012292  | 0.0012496  | 0.001276   |   0.0 |  0.02
Comm    | 0.99765    | 1.0887     | 1.1585     |   3.7 | 13.73
Output  | 3.4064e-05 | 4.9947e-05 | 7.4178e-05 |   0.0 |  0.00
Modify  | 0.6556     | 0.72761    | 0.77927    |   3.7 |  9.17
Other   |            | 0.1157     |            |       |  1.46

Nlocal:    23.7188 ave 33 max 15 min
Histogram: 2 6 16 26 10 29 22 6 8 3
Nghost:    2953.59 ave 2991 max 2912 min
Histogram: 3 2 13 16 21 29 20 10 8 6
Neighs:    9177.94 ave 13452 max 5407 min
Histogram: 4 7 15 25 24 19 12 13 6 3

Total # of neighbors = 1174776
Ave neighs/atom = 386.949
Ave special neighs/atom = 1.97628
Neighbor list builds = 4
Dangerous builds = 0
timestep 0.1
run ${Ninvtpre}
run 10000
PPPM initialization ...
  extracting TIP4P info from pair style
  using 12-bit tables for long-range coulomb (../kspace.cpp:321)
  G vector (1/distance) = 0.312133
  grid = 30 30 30
  stencil order = 5
  estimated absolute RMS force accuracy = 0.00339716
  estimated relative force accuracy = 1.02304e-05
  using double precision FFTs
  3d grid and FFT values/proc = 2475 256
Per MPI rank memory allocation (min/avg/max) = 8.201 | 8.213 | 8.22 Mbytes
Density 
   1.0347735 
   1.0347735 
Loop time of 8.2527 on 128 procs for 10000 steps with 3036 atoms

Performance: 10.469 ns/day, 2.292 hours/ns, 1211.725 timesteps/s
99.4% CPU use with 128 MPI tasks x no OpenMP threads

MPI task timing breakdown:
Section |  min time  |  avg time  |  max time  |%varavg| %total
---------------------------------------------------------------
Pair    | 1.5077     | 2.1107     | 2.7475     |  20.7 | 25.58
Bond    | 0.00074528 | 0.00087902 | 0.0015922  |   0.0 |  0.01
Kspace  | 3.4615     | 4.0952     | 4.6873     |  14.7 | 49.62
[...]
98160000    300.77965    298.08388   -43.388218    27.671258   -13606.834    1824.5138   -11782.321 
98170000    299.90816    297.82153     155.6553      6.07915   -13588.099    1819.2274   -11768.872 
98180000    306.60653    297.73939   -99.716923   -3.0641606   -13595.516    1859.8594   -11735.657 
98190000    294.76039    297.88651   -247.64791    54.903465   -13528.364    1788.0013   -11740.363 
98200000    293.79549    298.27233   -425.83788   -31.321438   -13602.828    1782.1483    -11820.68 
98210000    295.99938    298.48004   -300.50523    54.747177    -13610.56     1795.517   -11815.043 
98220000    294.97674    297.80352    387.95701    58.396054   -13527.457    1789.3137   -11738.144 
98230000    294.23289    297.85735    458.25273    10.701801    -13699.63    1784.8015   -11914.829 
98240000     284.4146    298.50329   -535.25301    40.238455   -13675.066    1725.2443   -11949.821 
98250000    302.63674    297.77801    509.82831    6.9339349   -13602.396    1835.7788   -11766.617 
98260000    298.76686    297.97951    362.18071    36.943464   -13623.879    1812.3044   -11811.575 
98270000    288.06097    298.19959   -277.96759   -1.6783621   -13597.906     1747.363   -11850.543 
98280000    286.89264    297.68284   -447.05965   -6.5922499   -13589.432     1740.276   -11849.156 
98290000    293.95231      297.893    -306.0236   -12.872429   -13544.994    1783.0995   -11761.894 
98300000      303.133    297.77255    283.04838   -19.831558   -13585.648    1838.7891   -11746.859 
98310000    292.95552    298.00299   -530.51551    25.382168   -13643.578    1777.0531   -11866.525 
98320000    293.42194    297.86061   -677.16748   -71.243577   -13581.814    1779.8824   -11801.931 
98330000    294.34377    298.05164    56.052737   -12.515931   -13582.079    1785.4741   -11796.605 
98340000    307.55233    297.74416   -68.840172   -64.015906   -13556.347    1865.5966    -11690.75 
98350000    301.03738    298.52426   -420.66541    12.753818   -13608.573    1826.0772   -11782.496 
98360000    300.00253    297.56512   -473.66149   -47.515694    -13615.14    1819.7999    -11795.34 
98370000    291.10107    298.13099    183.65673    78.901934   -13565.023    1765.8041   -11799.219 
98380000    287.95021     297.9668    178.89903    17.324097   -13514.872    1746.6911   -11768.181 
98390000     303.4307     297.9373   -535.86395   -87.339738   -13579.418     1840.595   -11738.823 
98400000    307.43744     297.8342    166.69983   -21.061181   -13644.063    1864.8997   -11779.164 
98410000    303.41157    297.97891   -128.74947   -34.576503   -13532.505    1840.4789   -11692.026 
98420000    309.59797    298.13808   -85.975657    15.864572   -13634.383    1878.0053   -11756.378 
98430000    293.21446    297.98873   -172.14164    -29.72319   -13543.045    1778.6238   -11764.421 
98440000    280.75417    297.83965    746.90106    33.805318   -13631.864    1703.0403   -11928.823 
98450000    298.64947    297.85795    10.720987    19.015186   -13581.314    1811.5923   -11769.722 
98460000    288.76976    297.50671   -172.23035   -0.1570379   -13564.202    1751.6625    -11812.54 
98470000    294.36568     297.8476   -1171.3999   -80.784785   -13562.147     1785.607    -11776.54 
98480000    310.29111    297.72434    285.52884   -36.752911   -13621.081    1882.2099   -11738.871 
98490000    301.53325    297.85833   -67.361538    111.31244   -13672.239    1829.0851   -11843.154 
98500000    294.05746    297.35674    3.6540474    14.712714   -13587.823    1783.7374   -11804.085 
98510000    304.86637       297.61   -166.48332    61.026357   -13585.764    1849.3037    -11736.46 
98520000    296.74916    297.77483   -59.634574    78.341432   -13563.279    1800.0651   -11763.214 
98530000    296.25329    298.18745    -101.8799   -88.534729   -13578.553    1797.0572   -11781.496 
98540000     298.3237    297.75827   -723.41099    60.323778   -13648.679    1809.6162   -11839.062 
98550000    308.02263    297.96476    613.55277   -36.930648   -13728.882    1868.4494   -11860.432 
98560000    291.07753    298.08404    302.16342   -73.159467   -13579.351    1765.6613    -11813.69 
98570000    297.25308    298.25581    128.04236   -32.628557   -13636.989    1803.1218   -11833.867 
98580000    289.18457    297.94876    55.093232   -26.744037   -13581.195    1754.1787   -11827.016 
98590000     294.3049    298.37825    92.735176   -23.522395   -13505.209    1785.2384    -11719.97 
98600000      296.825    297.92636   -87.659042   -66.195803   -13597.205    1800.5252    -11796.68 
98610000    301.20855    298.08968   -394.98714    22.033698   -13537.457    1827.1155   -11710.342 
98620000    303.74639    297.74912   -400.47259   -41.748667   -13557.302      1842.51   -11714.792 
98630000    286.82893    297.97938    341.72036   -30.593663   -13630.073    1739.8895   -11890.183 
98640000    297.87042    297.98629    267.80285   -45.155433   -13637.603    1806.8666   -11830.737 
98650000    297.63996    297.58339    122.05163    30.803197   -13655.946    1805.4687   -11850.478 
98660000    295.52304     298.1223   -220.50168   -77.240074   -13531.129    1792.6275   -11738.501 
98670000     290.9165    297.54017    547.52258   -72.790037    -13527.17    1764.6845   -11762.486 
98680000    294.94486    298.61212    91.820405   -127.04766   -13546.515    1789.1203   -11757.394 
98690000    289.04101    298.43843   -347.56092    5.3164664   -13587.723    1753.3078   -11834.415 
98700000    296.31109    297.54926   -165.91376   -15.822454   -13484.335    1797.4078   -11686.927 
98710000    294.20273     298.2418    260.84977    81.645711    -13649.07    1784.6186   -11864.451 
98720000    294.23573     297.9435    301.57311   -18.748241   -13568.919    1784.8188     -11784.1 
98730000    296.16703    297.93686   -985.94746    55.334417   -13658.286    1796.5339   -11861.752 
98740000    300.14737    297.98941   -58.441552   -23.098283   -13691.504    1820.6785   -11870.825 
98750000    301.18964    298.24019    450.59786     4.646286   -13566.979    1827.0008   -11739.979 
98760000     292.3177    298.38431    140.38907    18.339686   -13625.281    1773.1841   -11852.097 
98770000    305.04964     298.0188   -373.60144   -49.433533   -13589.459    1850.4154   -11739.043 
98780000    293.85353    297.83015   -139.29263   0.12528395    -13564.14    1782.5004    -11781.64 
98790000    299.01222    298.23064   -276.75431    36.608347   -13682.229    1813.7927   -11868.437 
98800000    302.13196    297.79211    221.88021    33.696699   -13529.887    1832.7169   -11697.171 
98810000    301.29485    298.14654    -252.5857    -52.08055   -13562.977     1827.639   -11735.338 
98820000     292.1489    297.79375   -81.283999   -58.125328    -13607.36    1772.1602     -11835.2 
98830000    291.71295      297.767   -164.60105    7.9379211   -13604.678    1769.5157   -11835.162 
98840000    303.86692    297.73153    151.19074   -16.636048   -13557.306    1843.2411   -11714.065 
98850000    301.23396    298.14431    321.45946   -25.331187   -13539.401    1827.2697   -11712.131 
98860000    307.70978    298.33284    281.96186    22.432084   -13709.569    1866.5516   -11843.018 
98870000    303.39967    298.25358   -353.23856    33.947902   -13602.292    1840.4067   -11761.885 
98880000    291.44809    297.74372   -726.68529     50.99488   -13691.977    1767.9091   -11924.068 
98890000    301.55157    297.65373   -695.98412     48.62496   -13552.831    1829.1963   -11723.634 
98900000    298.93783    297.60342    516.05749   -74.489895   -13522.604    1813.3414   -11709.263 
98910000    303.07318     297.9662   -137.86906    78.298521   -13612.942    1838.4263   -11774.516 
98920000    302.52517    297.92816   -65.461007    30.949214   -13713.207    1835.1021   -11878.105 
98930000    301.85091    297.90439    303.76807     68.28532    -13534.44    1831.0121   -11703.428 
98940000    298.50007    297.92325    117.83705    33.194492   -13586.963     1810.686   -11776.277 
98950000    306.04756    298.30794    -502.8647    -54.29039    -13596.98    1856.4687   -11740.512 
98960000      301.483    298.29386     44.23949    33.245631   -13485.804    1828.7803   -11657.024 
98970000    294.23706    298.45058    560.00293   -35.332637   -13671.945    1784.8268   -11887.118 
98980000     285.9493    297.65674   -562.65682   -15.045919   -13650.319    1734.5537   -11915.765 
98990000    297.87822    297.20774   -53.238615   -67.813763   -13535.704    1806.9139    -11728.79 
99000000    298.83781    297.86595    930.48128     29.77136   -13608.763    1812.7348   -11796.028 
99010000    293.95042    297.67735    433.96859    13.526353   -13687.861    1783.0881   -11904.773 
99020000    295.82044    297.74956   -212.69786   -59.873535   -13627.333    1794.4315   -11832.902 
99030000    298.23462    298.07524    82.485873   -9.4955499   -13611.336    1809.0758    -11802.26 
99040000     301.1026    298.20135    501.62311    43.480877   -13562.504    1826.4728   -11736.031 
99050000    302.11931    298.28839   -363.92654    87.603764   -13626.882    1832.6402   -11794.242 
99060000    298.02584     298.3378   -435.93683     -38.3505   -13581.453    1807.8094   -11773.643 
99070000    286.77099    298.22453   -307.36708    90.769608    -13546.25     1739.538   -11806.712 
99080000    293.58561     298.0116    263.18306   0.58562242   -13488.932    1780.8752   -11708.057 
99090000    290.98347    297.90781    123.51536    53.267947   -13654.946    1765.0907   -11889.855 
99100000    304.78282    298.11329   -219.27244    6.5730835    -13576.49    1848.7969   -11727.694 
99110000    290.17417    297.94997    70.589615  0.067646234   -13625.494    1760.1816   -11865.313 
99120000    304.54835    297.66556   -590.84882   -6.7207238   -13607.586    1847.3746   -11760.211 
99130000    298.15672    298.30171    230.12375   -98.261718   -13510.845    1808.6033   -11702.242 
99140000    295.00664    298.37036    251.16558   -18.923221    -13558.97    1789.4951   -11769.475 
99150000    285.14373    297.93853     260.4694   -22.457474   -13609.988    1729.6672    -11880.32 
99160000    299.73474    298.02543   -321.40249   -5.7228366   -13577.794    1818.1755   -11759.619 
99170000    296.79281    298.39911    436.50589    15.354715   -13587.076    1800.3299   -11786.746 
99180000    302.11906    297.95727    882.41132   -67.099684   -13551.446    1832.6387   -11718.808 
99190000    295.72972    297.63647    37.980803    10.907909   -13604.985    1793.8812   -11811.104 
99200000    301.46647    298.05624   -375.50783   -25.021151   -13608.156      1828.68   -11779.476 
99210000     297.8211    297.74337    173.64842     24.36303   -13553.225    1806.5675   -11746.658 
99220000    297.76654    298.33998     65.13545    33.809141   -13543.711    1806.2365   -11737.474 
99230000    305.22414     297.8826   -119.27947    30.240542   -13579.355    1851.4739   -11727.881 
99240000    300.60896    297.64106   -66.771183    74.232639    -13676.66    1823.4785   -11853.182 
99250000    300.42921    297.76308   -334.70268   -6.2828403   -13561.978    1822.3881    -11739.59 
99260000    305.39354     297.6902   -336.60349   -45.450759   -13569.032    1852.5015   -11716.531 
99270000    297.73089    297.87759    124.39707    40.675762   -13604.867    1806.0202   -11798.847 
99280000    301.82367    297.90411   -741.95956   -80.235591   -13511.309    1830.8468   -11680.462 
99290000    298.55997    298.44047    84.082012    35.202691   -13672.993    1811.0494   -11861.943 
99300000    301.65978    297.77924    180.17876    1.4526733   -13527.316    1829.8527   -11697.463 
99310000     302.6995    298.38453    1622.1218    50.427286     -13585.8    1836.1596    -11749.64 
99320000    301.65126    297.95066   -332.05764   -43.474643   -13484.901     1829.801     -11655.1 
99330000    294.69849    298.27299   -28.397031   -12.018694   -13574.485    1787.6259   -11786.859 
99340000     295.1068     297.8068   -154.42024   -30.074189   -13612.422    1790.1026   -11822.319 
99350000    296.94149    297.78608    248.28366    55.287668   -13640.853    1801.2318   -11839.621 
99360000    301.01922    298.10938    803.60999    93.775938   -13524.757    1825.9671    -11698.79 
99370000    289.04815    297.83801   -579.41811   -57.030411    -13580.17    1753.3512   -11826.819 
99380000    307.35731    298.05973   -172.13767   -16.024186   -13561.259    1864.4136   -11696.846 
99390000    293.37375    297.66494    3.6517324     -36.4299   -13644.822    1779.5901   -11865.232 
99400000    296.55513    298.23779   -97.924196   -2.9887998   -13614.818    1798.8881    -11815.93 
99410000    300.42377    297.80609   -304.91811   -43.747162   -13664.544    1822.3551   -11842.189 
99420000    297.83138    297.92427   -427.58543   -21.854729   -13547.653    1806.6298   -11741.023 
99430000    295.84349    297.84048   -55.272896   -48.557017   -13619.145    1794.5714   -11824.573 
99440000     301.3816    297.87081    159.60989    70.677186   -13666.594    1828.1653   -11838.429 
99450000    297.26085    298.15574    19.541161    36.919665   -13562.132     1803.169   -11758.963 
99460000    297.70893     297.6747   -452.15809    31.590038   -13515.689     1805.887   -11709.802 
99470000    293.89855    297.91169    18.387605    60.842722   -13546.499    1782.7734   -11763.726 
99480000    294.93754    297.92275    -964.5958     21.04608     -13583.8    1789.0759   -11794.724 
99490000     298.9715    297.99487   -291.93581   -16.078192   -13553.479    1813.5457   -11739.934 
99500000    299.52855    297.79044   -79.003576   -31.797525   -13667.013    1816.9248   -11850.088 
99510000     298.6737    298.17365       99.619   -59.171488   -13578.016    1811.7393   -11766.276 
99520000    296.66742    297.89903    231.73228    26.994117   -13631.446    1799.5693   -11831.877 
99530000    296.69536    297.94723   -356.33501   -20.090748   -13536.976    1799.7388   -11737.238 
99540000    294.27174    298.10654   -423.06554   -67.102684   -13573.794    1785.0372   -11788.757 
99550000    295.53611    298.02224     -461.735    71.189057   -13589.782    1792.7068   -11797.076 
99560000    298.00219     297.8014   -289.53531    59.391568   -13577.138    1807.6659   -11769.472 
99570000    301.91904    298.00051    363.53932   -52.017328     -13621.7    1831.4254   -11790.274 
99580000    301.29921    298.39358   -547.46543   -68.916164   -13577.482    1827.6655   -11749.817 
99590000    296.50724    298.08754    55.377418   -3.2702561   -13497.125    1798.5976   -11698.528 
99600000    293.80912    297.40674   -280.48134   -14.071408   -13582.369     1782.231   -11800.138 
99610000    301.75264    297.47222    425.91206   -37.024143   -13601.739     1830.416   -11771.323 
99620000    292.31028    297.82481   -24.391533    24.663254   -13625.221    1773.1391   -11852.082 
99630000    284.05402    297.69677     402.3734   -51.322626   -13582.997     1723.057    -11859.94 
99640000    299.89292    298.30808    104.43191    19.396001   -13598.151     1819.135   -11779.016 
99650000    288.34339     297.8176   -205.49724     -32.8518   -13575.182    1749.0761   -11826.106 
99660000    296.28825    297.73346    40.552004    45.352864   -13592.787    1797.2693   -11795.517 
99670000    298.98466    297.26533   -83.182865    33.062079   -13640.475    1813.6255    -11826.85 
99680000     296.8214    298.18245    244.08605     99.34174    -13564.88    1800.5033   -11764.377 
99690000    295.90683    298.05973    342.74474    36.745468   -13642.705    1794.9556   -11847.749 
99700000    290.78332    298.41692    -281.3754    17.100701   -13548.306    1763.8766   -11784.429 
99710000    288.06462     297.7562   -911.49198    21.059461   -13662.116    1747.3851   -11914.731 
99720000    296.37548    298.10002    159.09684   -19.133124   -13545.143    1797.7984   -11747.344 
99730000    301.21453    297.88143    513.33438   -90.981613   -13636.761    1827.1518   -11809.609 
99740000    299.31522    298.29329   -409.59267   -6.5087532   -13572.274    1815.6307   -11756.643 
99750000    302.01118    297.77143    326.43571    2.0634993   -13566.202    1831.9843   -11734.218 
99760000    306.69478    298.09317   -544.96361   -57.627256   -13543.502    1860.3947   -11683.107 
99770000    297.00059    297.61943   -357.57592   -33.788963   -13653.287    1801.5903   -11851.697 
99780000    303.56998    297.62733    269.24015    29.084927   -13502.667    1841.4399   -11661.228 
99790000    293.45653    298.14522    173.30906    35.999191    -13515.14    1780.0922   -11735.048 
99800000    292.72772    298.09672    402.76618  -0.77312503   -13577.493    1775.6713   -11801.822 
99810000     300.6668    297.95604   -634.52069   -55.677722   -13612.619    1823.8293   -11788.789 
99820000    298.00334    297.38308   -225.60058   -70.250878   -13605.837    1807.6729   -11798.164 
99830000    289.99725    298.08879    165.29423    68.063528   -13529.219    1759.1083   -11770.111 
99840000    290.89437    298.04531   -204.66721    37.190185   -13599.113    1764.5502   -11834.563 
99850000     292.2239    298.06494   -105.59578    55.143109   -13630.906    1772.6151   -11858.291 
99860000    299.17442    297.84263    66.333237    17.220885   -13563.829    1814.7766   -11749.052 
99870000    299.49206     297.8834    995.50677    74.134589   -13578.361    1816.7034   -11761.657 
99880000    292.23762    297.92023      110.579     40.71083   -13637.807    1772.6983   -11865.109 
99890000    300.42014    298.34032    -291.4548   -15.809578   -13603.392    1822.3331   -11781.059 
99900000     303.9176    298.06558    449.25066     15.55569   -13635.382    1843.5485   -11791.833 
99910000    288.18507    298.35172   -486.32614   -115.72055   -13536.152    1748.1158   -11788.036 
99920000    303.60258     297.7664   -232.96492    22.653245   -13530.017    1841.6376   -11688.379 
99930000    308.57037    298.48074    -183.3113    79.027913   -13617.993    1871.7719   -11746.221 
99940000    298.67539    298.01944    59.634603    55.887284   -13589.984    1811.7495   -11778.234 
99950000     303.6095    298.07848   -40.887014   -18.329828   -13519.898    1841.6796   -11678.218 
99960000    304.77317    298.29203    484.81532    44.274909   -13548.647    1848.7384   -11699.909 
99970000    303.80908    298.37817   -334.80109   -143.30181    -13582.68    1842.8902    -11739.79 
99980000    290.22091    298.21767   -110.85305   -32.668736   -13645.846    1760.4651   -11885.381 
99990000    295.19543    297.80712    758.81319   -19.755932   -13525.503    1790.6403   -11734.863 
100000000    305.44205    297.97275    367.10421   -56.479175   -13564.918    1852.7957   -11712.122 
Loop time of 92457 on 128 procs for 100000000 steps with 3036 atoms

Performance: 186.898 ns/day, 0.128 hours/ns, 1081.584 timesteps/s
99.3% CPU use with 128 MPI tasks x no OpenMP threads

MPI task timing breakdown:
Section |  min time  |  avg time  |  max time  |%varavg| %total
---------------------------------------------------------------
Pair    | 19873      | 23569      | 26769      |1147.8 | 25.49
Bond    | 8.7411     | 10.175     | 17.222     |  36.7 |  0.01
Kspace  | 39149      | 42394      | 46018      | 864.0 | 45.85
Neigh   | 2901.7     | 2936.6     | 2962.9     |  29.8 |  3.18
Comm    | 11564      | 12411      | 13089      | 338.2 | 13.42
Output  | 3.6256     | 84.584     | 99.725     | 169.6 |  0.09
Modify  | 8944.5     | 9550.6     | 10149      | 320.0 | 10.33
Other   |            | 1501       |            |       |  1.62

Nlocal:    23.7188 ave 31 max 17 min
Histogram: 8 3 20 16 13 31 10 19 3 5
Nghost:    2944.95 ave 2981 max 2909 min
Histogram: 6 7 13 18 14 22 23 14 10 1
Neighs:    9176.92 ave 13287 max 6480 min
Histogram: 9 15 19 29 16 18 11 5 4 2

Total # of neighbors = 1174646
Ave neighs/atom = 386.906
Ave special neighs/atom = 1.97628
Neighbor list builds = 8680325
Dangerous builds = 0

quit
