3036
Atoms. Timestep: 0
O 27.9526 12.6736 6.99672
H 27.3046 12.6434 7.70061
H 28.7358 12.2733 7.37421
O 27.389 10.3318 26.3172
H 26.6744 10.4493 26.9431
H 27.7607 11.2074 26.2102
O 15.8805 18.8007 9.73332
H 14.9543 18.6048 9.59226
H 16.3107 17.9456 9.72444
O 11.5449 25.9621 3.20549
H 11.5755 25.0118 3.31553
H 12.2265 26.2935 3.7901
O 4.42006 19.4711 13.054
H 5.13692 19.3538 12.4306
H 4.85203 19.5491 13.9046
O 26.1421 15.7883 0.898389
H 25.1929 15.7778 0.775048
H 26.4518 16.4836 31.5954
O 8.1276 22.921 27.8491
H 8.23618 23.6242 27.2087
H 7.39451 23.2049 28.3952
O 13.3028 18.347 23.842
H 12.3486 18.4218 23.8288
H 13.5102 17.7903 23.0914
O 25.2255 16.4161 28.5832
H 25.1652 15.6989 29.2143
H 26.0475 16.2586 28.1187
O 21.9485 22.0411 15.6623
H 21.8814 21.0863 15.6697
H 22.8645 22.2156 15.446
O 28.8774 24.0858 9.08333
H 29.5544 24.4691 8.52573
H 28.3215 24.8254 9.3288
O 3.06753 14.0393 17.7244
H 3.68415 13.4422 18.148
H 2.65775 13.5135 17.0375
O 13.5543 18.2056 6.70998
H 13.6951 18.4386 7.62765
H 13.8919 17.3131 6.63444
O 23.9954 0.756155 18.7688
H 23.1927 31.5161 18.8339
H 24.2665 0.664727 17.8554
O 24.4655 1.61801 25.2903
H 23.749 1.55245 25.9217
H 25.1927 1.98888 25.7902
O 24.1323 5.73248 24.8268
H 24.4075 6.60075 24.5324
H 24.6594 5.56584 25.6082
O 12.6747 19.6536 13.0986
H 12.4663 19.4488 14.0101
H 13.6044 19.4432 13.0119
O 24.4735 2.18233 3.05418
H 25.3563 2.16712 3.42382
H 24.1715 1.27619 3.11679
O 22.8246 17.6581 26.016
H 23.5819 17.0812 25.9162
H 22.3633 17.5954 25.1796
O 2.90276 20.3813 30.5645
H 3.64724 19.7797 30.5756
H 3.00848 20.9085 31.3564
O 31.8253 9.94699 28.8652
H 31.413 10.7213 29.2483
H 1.26517 10.2945 28.3351
O 21.0693 8.26179 1.92048
H 20.743 7.59269 1.31875
H 20.28 8.66917 2.27724
O 4.83765 20.6352 24.9443
H 5.57497 20.7922 24.3545
H 4.20752 21.3228 24.7292
O 5.80528 9.35836 1.79827
H 6.64366 9.36011 2.26018
H 5.98189 9.82017 0.978651
O 16.0959 29.7427 10.0949
H 15.6227 29.8511 9.27001
H 16.9092 30.232 9.97111
O 26.9955 29.3282 1.51487
H 26.9477 28.3827 1.65618
H 26.179 29.5452 1.06493
O 13.6414 2.86774 31.3457
H 12.7857 2.93917 31.7685
H 13.4667 2.40321 30.5272
O 10.6031 19.1533 11.5792
H 10.9273 18.2949 11.3067
H 11.3188 19.5284 12.0923
O 1.67101 2.35576 10.4327
H 2.32366 1.99278 11.0315
H 1.96325 3.25346 10.2747
O 7.0778 22.4958 12.9998
H 6.26726 23.0046 13.0186
H 7.67089 23.0094 12.4515
O 15.5014 8.59482 31.8388
H 15.0925 9.37298 0.940239
H 16.0366 8.23625 1.26934
O 12.7436 27.0534 5.35224
H 13.4086 27.554 4.87952
H 12.6159 27.5357 6.16915
O 5.24745 31.6123 23.9213
H 4.85113 1.01725 24.4631
H 4.82624 31.7092 23.0672
O 26.7897 29.5822 10.2376
H 26.2616 28.811 10.4442
H 27.3442 29.305 9.50829
O 9.65372 3.25558 2.41716
H 8.89829 3.009 2.95079
H 10.3264 3.50116 3.05237
O 26.8668 30.9966 18.3041
H 26.3945 30.9006 19.1311
H 27.7895 30.9081 18.5429
O 27.8663 22.48 20.8655
H 28.7902 22.4295 21.1108
H 27.8733 22.5094 19.9088
O 6.26885 10.9526 14.5646
H 6.98738 10.8917 15.1941
H 6.2699 11.8687 14.2872
O 19.0933 20.0291 17.3705
H 19.2561 19.6492 18.2338
H 19.5003 20.8947 17.4086
O 3.2101 11.3054 30.327
H 3.70872 10.4981 30.2008
H 3.87272 11.9958 30.3486
O 16.8362 17.0826 23.589
H 16.1847 16.6272 24.1223
H 17.6602 16.9602 24.0606
O 25.4807 1.90565 31.2743
H 24.611 2.21426 31.0198
H 25.4929 1.98256 0.950956
O 10.2708 28.3717 26.3352
H 10.5558 27.6582 25.7643
H 9.37252 28.555 26.0601
O 23.9765 27.4489 28.0255
H 24.0014 27.6324 28.9646
H 23.1281 27.0285 27.8855
O 25.2542 2.01431 22.8326
H 25.2169 1.74177 23.7494
H 24.3382 2.06389 22.5595
O 17.797 30.1093 24.3547
H 18.4406 30.6097 24.8563
H 17.5988 30.6624 23.599
O 20.8659 31.0515 6.36634
H 20.9267 30.156 6.69892
H 19.9408 31.2794 6.45863
O 8.58362 28.8158 16.7757
H 9.27485 28.3555 17.2517
H 7.77026 28.5029 17.1716
O 21.3335 4.79452 14.2396
H 20.5526 4.59558 14.7563
H 22.0192 4.24574 14.6201
O 3.20162 13.2004 22.5205
H 4.11835 12.9514 22.4029
H 3.12621 14.0502 22.0865
O 7.69034 30.2289 1.20306
H 7.7532 29.3801 0.765085
H 6.8522 30.1994 1.66445
O 22.7285 26.8904 3.67843
H 22.1618 27.1987 2.97131
H 22.1245 26.6289 4.37338
O 28.9096 12.5896 16.5734
H 28.1422 12.4979 16.0086
H 29.6519 12.3851 16.0047
O 22.3149 7.42648 26.9523
H 21.3733 7.51586 26.8051
H 22.6481 7.03608 26.1444
O 24.8799 8.09882 23.7921
H 24.6461 8.64263 24.5443
H 25.3396 8.69363 23.1996
O 6.02018 5.94825 9.84075
H 5.23254 6.44094 9.61028
H 5.70559 5.06162 10.0172
O 9.32098 10.2024 14.0987
H 8.71163 10.5767 13.4625
H 9.57263 10.9409 14.6532
O 25.6095 31.1635 21.0587
H 25.0663 31.5628 20.3793
H 25.9545 0.627322 21.5566
O 28.7651 18.3271 15.7271
H 29.0184 17.9046 14.9064
H 27.8144 18.2229 15.7672
O 8.40811 13.2437 4.60119
H 9.24375 12.9066 4.2783
H 8.0518 13.7446 3.86744
O 26.4792 23.098 6.3989
H 26.2655 24.029 6.46035
H 27.0361 23.0303 5.62328
O 11.8017 16.8496 10.7404
H 12.5022 16.4513 11.257
H 11.6212 16.2124 10.0492
O 4.62432 1.02263 6.47115
H 3.99262 1.01524 7.19027
H 5.26835 31.6336 6.71061
O 1.64768 8.65725 21.7827
H 1.7721 9.33481 22.4473
H 1.94579 9.06231 20.9683
O 24.1956 26.1786 22.2997
H 23.681 25.7398 22.977
H 25.0898 25.8658 22.4372
O 23.2035 15.9293 31.2774
H 23.1288 16.5692 0.707834
H 23.1005 16.4438 30.4768
O 19.0144 4.565 7.55696
H 19.0709 5.51875 7.61523
H 19.7139 4.24783 8.12828
O 30.0944 24.6785 19.4572
H 29.8125 25.191 20.215
H 30.7855 24.1094 19.796
O 27.3779 10.7935 11.7529
H 28.0444 10.4464 11.16
H 27.5828 11.7257 11.8249
O 12.6353 16.1869 25.8398
H 12.0632 16.3823 25.0977
H 12.3452 15.3279 26.1468
O 16.9006 2.93188 7.73551
H 16.18 3.55033 7.61488
H 17.6903 3.47039 7.68381
O 29.585 10.4397 22.1686
H 29.675 11.1208 21.5021
H 29.7447 10.8919 22.997
O 30.8868 9.33834 18.5278
H 30.8934 8.6222 19.1629
H 31.0895 8.91925 17.6914
O 8.24434 15.004 26.7077
H 7.40833 14.5856 26.9133
H 8.50405 14.6223 25.8693
O 21.274 19.402 15.9227
H 20.3604 19.3332 16.1997
H 21.7519 18.8362 16.5292
O 11.9049 1.95294 21.8481
H 12.7957 2.22081 21.6224
H 11.4243 1.99714 21.0214
O 23.4275 10.2137 1.90329
H 22.8799 9.52244 1.53113
H 22.8661 10.9891 1.90631
O 25.088 10.3026 12.8422
H 25.9202 10.6117 12.4841
H 25.3216 9.89946 13.6784
O 4.14352 24.8426 16.8618
H 4.54774 24.4982 16.0654
H 3.3691 24.2957 16.9936
O 25.0272 28.7053 7.04392
H 25.5826 29.4659 6.87312
H 24.6367 28.8807 7.90008
O 20.6106 26.2003 13.509
H 20.3558 25.2783 13.5439
H 21.2253 26.2519 12.7771
O 15.6457 27.3449 10.9963
H 16.1244 28.1451 10.7802
H 16.1581 26.9404 11.6963
O 13.6665 11.2291 21.8568
H 14.0787 11.8732 22.4325
H 14.3629 10.6026 21.6601
O 29.3998 19.3901 26.6695
H 28.4595 19.4603 26.5045
H 29.4638 19.1438 27.5922
O 26.6454 29.1311 25.2455
H 27.3366 29.5006 25.795
H 25.8311 29.4138 25.6617
O 31.0238 13.6291 9.97213
H 30.8049 14.4931 9.62302
H 31.2034 13.0958 9.19779
O 30.1931 9.0878 26.6754
H 30.7371 9.6569 27.2199
H 29.295 9.35236 26.8742
O 15.4206 31.3348 12.5156
H 14.9196 30.6089 12.8873
H 15.6007 31.0658 11.6148
O 18.0717 24.4733 5.09813
H 18.5103 23.6784 5.40147
H 18.7829 25.0422 4.80353
O 23.2953 6.90624 12.0239
H 22.4774 6.52551 11.7041
H 23.0742 7.81544 12.2255
O 13.9023 11.5415 17.1818
H 13.2761 11.4027 17.8923
H 13.6159 12.3541 16.7649
O 5.46053 13.1537 31.2249
H 6.16134 13.321 30.5947
H 5.74843 12.3761 31.7032
O 2.51866 11.0581 26.9159
H 2.80223 11.2259 26.0172
H 2.20218 11.9052 27.2298
O 15.375 12.2386 9.61785
H 15.3246 12.1365 10.5682
H 15.4263 13.1845 9.48048
O 16.9823 16.4714 5.34374
H 17.5456 15.8196 5.76093
H 17.1647 17.2838 5.8159
O 18.9192 28.1396 4.10669
H 19.7775 27.7486 4.26969
H 18.3894 27.8781 4.85984
O 13.6842 26.6672 14.1088
H 14.2948 25.9677 13.8763
H 12.9448 26.5483 13.5126
O 14.2998 11.0555 1.57224
H 14.4774 11.9618 1.32063
H 14.5982 10.9955 2.47973
O 24.5211 21.1108 6.66032
H 23.612 21.247 6.92719
H 24.7894 21.9497 6.28542
O 31.439 2.42859 3.44179
H 31.1609 1.80524 4.11283
H 0.626369 1.89542 2.79681
O 9.97868 31.1102 29.3786
H 10.6635 31.6496 28.9833
H 10.2633 30.2095 29.2238
O 16.4502 21.3124 20.4876
H 15.5236 21.5441 20.5494
H 16.6148 20.7727 21.2607
O 7.86267 31.2437 4.97897
H 8.51801 30.546 4.98347
H 8.34971 0.751405 4.72874
O 28.1477 27.8296 8.67364
H 28.5019 27.7252 7.79053
H 27.5508 27.0892 8.78192
O 27.8582 21.3809 17.9078
H 27.2715 20.8066 18.3999
H 28.736 21.056 18.1084
O 25.591 15.5123 14.076
H 26.3623 15.7388 13.5564
H 24.9342 16.1624 13.8266
O 25.8014 5.43732 26.7594
H 25.3659 5.28091 27.5973
H 26.606 5.90172 26.9901
O 3.19415 15.3539 28.975
H 3.79601 15.8126 28.3888
H 2.5995 14.8851 28.3895
O 21.9358 4.82582 27.1845
H 21.0632 4.84395 27.5774
H 22.2532 5.72541 27.2632
O 5.69132 13.4889 13.7512
H 5.32733 14.1667 14.3206
H 5.25295 13.6207 12.9106
O 24.1023 12.4014 18.6076
H 23.6452 12.0934 17.825
H 24.077 11.6571 19.2089
O 14.4978 30.7818 4.68786
H 15.4364 30.9562 4.61761
H 14.1401 31.0486 3.84103
O 5.39435 16.4355 6.32394
H 5.78315 17.0642 5.71583
H 6.1436 16.0102 6.74097
O 3.50247 28.2356 19.9732
H 2.86238 28.9121 20.1945
H 3.13123 27.7947 19.209
O 30.2343 15.0465 17.0479
H 29.5545 15.5773 17.4631
H 29.8139 14.2019 16.886
O 17.5656 25.7361 7.61468
H 17.4715 26.6523 7.35404
H 17.5547 25.2497 6.79032
O 7.56013 6.2936 26.0577
H 8.38352 6.48407 26.5071
H 7.09682 7.13102 26.0405
O 12.1046 30.3949 25.9528
H 11.6087 31.2077 26.0516
H 11.4584 29.7017 26.0871
O 31.792 29.0961 27.9102
H 31.7493 29.3982 27.003
H 1.31257 29.4941 28.2583
O 24.2132 6.17838 14.6183
H 23.8647 6.25441 13.73
H 23.5167 6.51944 15.1794
O 31.2284 26.4988 30.4685
H 31.2768 26.307 29.5319
H 0.815431 26.8471 30.6871
O 31.1644 31.3923 21.7456
H 30.8549 30.7501 22.3845
H 30.4744 31.4234 21.083
O 7.60961 28.544 25.8419
H 7.77515 29.4781 25.7137
H 7.65315 28.1696 24.962
O 22.0153 5.58601 20.8567
H 22.1932 5.29806 19.9613
H 21.5885 4.83545 21.2698
O 26.2388 4.69846 18.6717
H 25.4903 4.2372 19.0502
H 25.8596 5.47682 18.2636
O 14.6788 15.2984 16.0914
H 13.8674 15.7846 15.9447
H 14.8467 15.3894 17.0294
O 4.06722 2.80867 24.7894
H 3.52048 2.86961 24.0061
H 4.84203 3.33127 24.5825
O 14.8681 15.7799 18.7657
H 15.0686 16.6778 19.0301
H 14.158 15.511 19.3484
O 2.89763 24.9872 29.8708
H 3.03986 25.8729 30.2049
H 3.77612 24.6592 29.6787
O 28.8954 3.68446 5.84735
H 29.8473 3.58752 5.82084
H 28.7465 4.43471 6.42284
O 2.85789 31.8414 8.53829
H 2.20467 31.3275 8.06343
H 2.34498 1.18396 9.05672
O 21.6411 17.3829 6.31711
H 21.4479 17.2014 7.23686
H 22.5038 17.7975 6.33041
O 20.9763 31.3258 20.6614
H 20.0246 31.3924 20.7388
H 21.268 31.0386 21.5267
O 20.3871 14.1316 25.5622
H 21.1769 13.8374 26.0159
H 19.6657 13.7711 26.0777
O 1.48473 31.8034 1.36048
H 1.92518 31.8169 31.7881
H 1.30414 30.8775 1.52251
O 12.7253 5.80691 21.1546
H 13.0522 6.63214 21.5129
H 12.4362 6.02752 20.2692
O 18.8203 19.0055 19.9711
H 19.5277 18.3613 20.0004
H 19.0307 19.6249 20.6698
O 22.0806 27.031 15.6856
H 22.7654 26.3693 15.5885
H 21.4196 26.7894 15.0368
O 15.5179 23.9648 10.3309
H 15.0009 24.5597 9.78787
H 15.4385 23.1147 9.89812
O 12.4598 5.98764 1.42395
H 12.3513 6.82733 1.87045
H 11.5899 5.78446 1.08008
O 13.2508 25.8581 10.826
H 12.852 26.0773 9.98392
H 14.0587 26.3709 10.8497
O 13.0879 19.0157 9.33672
H 12.3769 19.5645 9.00589
H 12.6458 18.2954 9.78626
O 11.5508 26.6529 8.52267
H 10.7094 26.4787 8.10087
H 11.3564 27.3221 9.17882
O 11.1894 1.73033 26.3221
H 11.5122 1.7999 27.2205
H 10.3945 2.26357 26.3107
O 3.75262 22.3742 20.0661
H 3.3476 22.6438 19.2418
H 4.65344 22.153 19.8298
O 27.7972 20.5027 2.6135
H 28.471 20.7512 3.24642
H 27.2085 19.9282 3.10283
O 10.5435 5.46982 23.0344
H 10.4375 6.25257 23.575
H 10.6423 5.80519 22.1433
O 10.1021 13.6473 17.7475
H 9.88496 14.3686 17.1568
H 10.716 13.1067 17.2505
O 30.5882 0.790617 5.97224
H 30.5482 1.38702 6.71986
H 29.911 31.4152 6.14953
O 15.166 30.1906 7.4742
H 16.0488 30.5224 7.31053
H 14.6118 30.6684 6.85714
O 31.1132 7.08947 29.032
H 30.7627 6.77163 28.1999
H 31.4204 7.97552 28.8402
O 2.60662 21.5239 15.8476
H 3.50356 21.3629 15.5547
H 2.20378 22.0124 15.1297
O 5.81252 16.7736 17.9487
H 5.43754 17.6438 18.0841
H 6.71113 16.941 17.6646
O 14.5289 16.5646 13.0955
H 14.5292 17.517 12.9993
H 15.1718 16.2585 12.4558
O 10.412 18.6649 3.42636
H 10.1599 19.4919 3.83708
H 9.588 18.2905 3.11486
O 19.0332 6.5986 27.5478
H 18.1348 6.41151 27.8201
H 18.9404 7.05344 26.7107
O 14.7645 18.9553 26.1793
H 15.4675 19.555 25.9294
H 14.3194 18.7514 25.3568
O 12.4895 10.723 19.357
H 12.7773 10.9341 20.2451
H 11.7046 10.1891 19.4796
O 2.82502 9.61095 16.104
H 2.57924 8.86453 16.6505
H 3.00715 9.22982 15.2451
O 6.71801 24.5386 18.2367
H 6.54679 23.6658 18.5906
H 5.8982 24.7902 17.8115
O 20.5043 17.7051 18.2768
H 19.919 17.371 17.5972
H 20.9202 16.9237 18.6409
O 24.9713 9.61253 5.89346
H 25.0357 10.5533 6.0576
H 24.2075 9.52007 5.32398
O 20.5457 2.5437 24.1014
H 20.2632 2.37884 23.2019
H 20.6867 3.48972 24.1392
O 11.7071 9.67971 12.0419
H 11.4922 10.4383 11.4991
H 12.1257 9.06458 11.4397
O 22.573 17.0671 21.4376
H 22.7449 17.8084 20.857
H 22.1521 17.4556 22.2046
O 26.0675 0.707668 8.6878
H 26.1914 31.3567 9.3992
H 25.2604 1.17002 8.91384
O 7.99595 15.0675 6.68316
H 8.06454 14.4366 5.96653
H 8.75839 15.6362 6.57607
O 0.679228 31.0963 17.7905
H 1.36182 30.9242 17.1419
H 31.7227 0.737143 17.6547
O 21.219 26.9845 27.6596
H 21.1134 27.2407 26.7433
H 20.4795 26.4019 27.8326
O 3.61172 21.4784 28.1747
H 3.334 21.4163 29.0886
H 4.30693 20.8259 28.0903
O 21.6463 20.9746 6.17132
H 21.9573 20.7584 5.29223
H 21.1709 21.7981 6.06196
O 23.8038 15.7111 18.8601
H 23.9022 16.4228 19.4926
H 24.6452 15.6763 18.4051
O 13.957 7.03721 12.4541
H 13.6902 6.43263 13.1466
H 13.9265 6.51353 11.6534
O 0.634692 14.0845 24.7952
H 0.710563 14.9974 24.5174
H 30.987 13.977 25.0161
O 26.4954 25.8525 9.77871
H 25.907 25.3743 10.3629
H 26.045 25.8553 8.93412
O 16.8324 31.6745 16.3924
H 17.4142 31.7769 15.6392
H 15.9837 0.715824 16.0852
O 18.7768 14.7479 6.437
H 19.4262 14.9766 5.77204
H 18.4687 13.8781 6.18249
O 16.0216 23.3169 23.5464
H 15.2247 22.9153 23.2002
H 16.5157 23.5783 22.7695
O 8.45556 11.4782 11.7897
H 7.646 11.4321 11.2811
H 8.7874 12.3623 11.6332
O 26.5918 9.6993 22.0891
H 27.1907 9.14424 21.5898
H 27.1234 10.4508 22.3516
O 24.7166 17.7649 12.3187
H 24.4005 17.2661 11.5654
H 24.0947 18.4872 12.4064
O 13.6993 31.4318 2.17566
H 14.277 0.917279 2.19658
H 12.8861 31.7571 1.78952
O 4.3594 2.02318 1.51377
H 3.73542 1.33052 1.29673
H 4.6737 1.79736 2.38925
O 11.3293 1.43844 16.5458
H 11.0416 0.759428 15.9355
H 10.966 2.24975 16.1907
O 29.159 4.45946 13.6598
H 28.4201 4.67643 13.0912
H 29.0521 3.52681 13.8468
O 9.73551 24.3808 14.5976
H 10.2767 24.2833 13.8141
H 9.59416 23.4853 14.9046
O 3.15866 30.3427 16.6017
H 2.85828 29.4519 16.7821
H 3.89385 30.4739 17.2005
O 4.8277 30.9428 21.2407
H 5.02102 30.9369 20.3032
H 4.17156 30.2553 21.3548
O 28.9231 15.6396 6.4287
H 28.3379 15.0395 6.89081
H 28.6737 16.5083 6.74396
O 11.4038 1.33538 0.919504
H 11.134 31.7665 1.27616
H 10.6912 1.93132 1.15038
O 9.25636 26.2159 7.10981
H 8.72399 25.7477 7.75291
H 9.61233 25.5285 6.5468
O 6.23586 23.0234 31.4869
H 5.41282 23.1272 0.687046
H 6.75858 23.7838 31.7414
O 14.0354 11.7306 26.3748
H 14.4435 11.4909 27.2068
H 13.6275 10.9216 26.0657
O 18.7724 1.95504 18.7902
H 17.8833 2.13886 18.4869
H 19.2198 1.60103 18.0216
O 26.4891 5.82688 4.26462
H 26.409 6.57245 4.85956
H 26.4076 5.05884 4.83004
O 21.1328 17.9979 23.6555
H 20.7055 18.8429 23.5151
H 20.4159 17.3975 23.8601
O 20.666 7.44026 17.6906
H 19.8902 7.96585 17.4954
H 21.0904 7.31448 16.8418
O 30.4688 21.1915 19.1955
H 31.0896 20.9237 18.5179
H 30.2719 20.3854 19.6727
O 24.7075 22.8322 3.38753
H 24.3529 23.6671 3.08193
H 25.645 22.9941 3.49358
O 16.6485 10.1146 27.8495
H 17.3788 10.5363 28.3023
H 15.8702 10.4113 28.3211
O 18.5418 26.7218 16.5247
H 18.2084 25.8257 16.479
H 19.3796 26.6432 16.9809
O 17.2262 28.1652 6.57732
H 17.5848 29.0014 6.87463
H 16.316 28.3602 6.35415
O 2.73242 2.7946 16.8852
H 3.60218 2.83936 16.488
H 2.12978 2.9785 16.1646
O 25.7449 23.1721 24.6108
H 25.9235 23.7131 25.3799
H 25.0184 22.6087 24.8771
O 26.9743 1.84589 4.75845
H 27.2783 1.54202 3.9032
H 27.6072 2.51718 5.01353
O 20.459 25.5513 21.9349
H 20.6935 25.316 21.0372
H 19.5303 25.3304 22.0061
O 24.6165 28.3182 11.5068
H 24.1754 27.4688 11.5163
H 24.2453 28.7729 10.7507
O 12.6123 20.1351 28.1356
H 11.7948 19.8019 27.7656
H 13.268 19.9677 27.4585
O 26.7097 2.63004 26.6914
H 26.3701 3.4897 26.4426
H 26.8334 2.6858 27.6389
O 23.1049 8.17539 4.21927
H 22.5649 7.57405 4.73211
H 22.5042 8.54505 3.57221
O 20.8521 15.1806 4.78669
H 20.5458 15.3269 3.8917
H 21.0761 16.0534 5.10943
O 20.3177 22.7758 17.9725
H 20.8389 22.5909 17.1912
H 20.6669 22.1846 18.6394
O 15.9082 7.40319 18.3191
H 16.315 6.57394 18.5703
H 16.5042 7.77561 17.6692
O 19.5529 0.775099 25.6996
H 20.1804 31.3938 25.9973
H 20.0814 1.40701 25.2121
O 18.7453 2.34452 11.8365
H 18.0983 2.24666 11.138
H 18.4386 1.76169 12.5311
O 6.76478 5.82676 3.55515
H 6.90272 6.59586 4.10804
H 5.87041 5.92359 3.22811
O 6.3703 18.3845 4.66863
H 6.80916 18.2544 3.82797
H 5.50073 18.711 4.43739
O 0.667046 19.8357 7.39922
H 0.683575 20.0606 6.46897
H 31.0695 20.0904 7.6922
O 14.4511 4.45469 6.55801
H 14.8742 5.0152 5.90758
H 13.8628 5.04102 7.03383
O 11.4647 25.0434 22.1694
H 10.7408 25.2898 21.5936
H 11.0808 24.4171 22.783
O 16.6713 6.46883 9.31506
H 17.0802 6.67967 10.1545
H 15.895 5.9594 9.54747
O 28.3569 26.7777 17.0207
H 28.4555 26.9629 17.9546
H 27.9056 25.9341 16.9897
O 31.8416 20.1294 17.2478
H 0.858324 19.2185 17.2384
H 1.28104 20.6172 16.8423
O 15.107 6.27733 25.5188
H 15.3417 6.47585 26.4252
H 15.7685 5.64785 25.2319
O 13.2923 23.6326 3.83304
H 13.9409 23.5668 3.13211
H 13.0387 22.727 4.01125
O 9.83999 18.3673 21.4464
H 10.4813 18.9111 20.9891
H 8.99539 18.7682 21.2411
O 2.57109 19.0216 24.1924
H 2.96322 19.1971 23.3371
H 3.24507 19.2769 24.8223
O 10.3108 4.85977 9.16358
H 9.54807 5.27416 8.7602
H 10.0157 4.6164 10.041
O 14.043 19.8955 4.5658
H 13.8489 19.6265 5.46368
H 13.235 20.3064 4.25842
O 23.3622 16.9808 9.84364
H 23.631 16.1395 9.47469
H 23.8509 17.6312 9.33924
O 30.5275 1.94645 8.39244
H 30.8568 2.76242 8.0156
H 29.5763 2.05357 8.40283
O 31.3161 27.2581 18.5828
H 31.2631 26.3651 18.2422
H 31.1523 27.1669 19.5215
O 3.82214 17.1967 8.69173
H 4.02394 16.6955 7.90163
H 3.23017 16.6325 9.1892
O 8.07263 8.88571 24.1204
H 7.73912 8.1425 23.6178
H 8.80553 8.52732 24.6211
O 31.2752 14.8633 5.09624
H 31.3729 15.5196 4.40639
H 30.4958 15.1374 5.57959
O 29.6902 7.76736 22.8347
H 29.7583 8.71854 22.752
H 28.992 7.63153 23.4753
O 14.7701 15.832 6.87165
H 15.5907 15.9144 6.3857
H 14.5297 14.9098 6.78192
O 2.0393 19.6449 2.14376
H 2.22069 18.8248 1.68463
H 2.77552 19.7505 2.7463
O 11.9127 16.008 0.764485
H 11.625 15.9987 31.129
H 11.2858 15.4456 1.21937
O 12.8158 22.0306 11.8575
H 12.3714 22.7661 12.2792
H 12.8027 21.334 12.5139
O 18.6133 24.9093 10.4696
H 18.0756 24.6716 9.71423
H 19.462 24.5013 10.2979
O 22.4976 17.5692 29.1661
H 22.6164 18.2103 29.8669
H 23.2633 17.6841 28.6034
O 31.4579 25.2917 13.2245
H 0.685661 25.8402 13.8247
H 30.6141 25.7366 13.1453
O 21.1265 17.3313 13.5392
H 21.7712 16.7696 13.109
H 21.6491 17.9436 14.057
O 24.1921 29.0524 4.35871
H 23.6071 28.3581 4.05546
H 24.2951 28.8872 5.29588
O 30.4394 26.9291 21.5143
H 30.6207 26.3922 22.2856
H 30.2172 27.7903 21.8682
O 24.9923 6.92461 9.91476
H 24.4552 6.87468 10.7055
H 25.3452 6.04126 9.80822
O 27.781 8.02457 24.8668
H 28.2322 7.5407 25.5586
H 27.2045 8.62942 25.3338
O 2.81042 24.069 22.0104
H 2.95261 23.7456 22.9
H 3.34128 23.4947 21.4585
O 29.906 30.4764 29.4149
H 29.193 29.9328 29.7501
H 30.554 29.8502 29.0923
O 17.8338 23.2513 19.2118
H 17.164 22.5695 19.2642
H 18.4676 22.9167 18.5773
O 17.3352 19.3266 6.2932
H 16.8033 20.1091 6.43787
H 18.0564 19.4079 6.91732
O 2.36987 7.37864 25.2407
H 1.41746 7.2866 25.2667
H 2.62784 6.97153 24.4137
O 9.42762 24.0003 18.3114
H 8.57074 24.3809 18.1187
H 9.50165 23.259 17.7104
O 10.0255 14.8598 20.3125
H 9.89882 15.7077 19.8868
H 10.0009 14.2255 19.596
O 15.9433 15.4558 27.6197
H 15.8134 15.4428 26.6714
H 16.5234 14.7144 27.7927
O 27.7077 31.2731 23.2083
H 27.807 31.8705 23.9496
H 27.0833 30.6145 23.5128
O 25.6031 12.3476 3.05902
H 26.4707 12.4098 3.45852
H 25.049 12.9104 3.59982
O 13.603 27.816 25.7073
H 13.8727 27.0186 25.2516
H 13.4295 27.5324 26.6049
O 13.9844 0.761582 16.0024
H 13.6422 31.3436 15.4407
H 13.2072 1.23578 16.2978
O 4.29483 26.3696 13.2856
H 4.06396 26.869 12.5023
H 4.87241 26.9515 13.7796
O 24.9033 29.1403 22.9164
H 25.5173 28.8971 23.6093
H 25.429 29.6463 22.2968
O 19.2722 16.5262 24.7801
H 19.4062 17.049 25.5707
H 19.6925 15.6881 24.9726
O 11.4845 7.62624 14.6093
H 12.2292 8.1856 14.8301
H 11.7584 6.74739 14.8717
O 16.9457 25.4136 31.8265
H 16.7947 26.2607 31.4071
H 16.711 25.5545 1.46626
O 25.4723 19.4216 9.16469
H 26.3694 19.0924 9.22072
H 25.1991 19.2223 8.26921
O 30.647 18.4633 5.02663
H 30.5676 17.9307 5.818
H 31.0397 17.8761 4.38062
O 8.10605 11.2303 16.8074
H 8.25107 12.0462 17.2865
H 7.29184 10.8808 17.1695
O 2.14396 11.0196 8.52801
H 3.03781 10.7317 8.34272
H 2.01884 11.7876 7.97054
O 10.2146 1.0782 19.2515
H 10.8656 1.37962 18.6178
H 10.4312 31.4349 19.3986
O 13.7722 1.86008 10.2985
H 13.0096 1.38361 9.97043
H 13.6903 2.73482 9.91856
O 0.754542 1.34606 25.6709
H 1.65734 1.65936 25.6158
H 31.7969 1.45225 26.5926
O 20.6423 12.5223 18.8769
H 19.7407 12.5003 18.5562
H 20.7484 11.6978 19.3515
O 15.3228 19.3003 12.4088
H 15.5275 19.1934 11.4799
H 16.045 19.8245 12.755
O 7.21094 28.1912 7.76423
H 8.06523 27.7621 7.81171
H 6.59022 27.523 8.05481
O 31.0462 16.7016 27.6459
H 30.4796 17.2932 28.141
H 0.657621 16.9845 27.861
O 3.1165 17.2955 14.3411
H 3.80785 16.6617 14.5324
H 3.51975 17.914 13.732
O 13.581 27.5354 28.7657
H 13.216 28.4199 28.741
H 12.8337 26.9625 28.5937
O 7.10527 29.8007 22.0925
H 7.78068 30.405 21.7845
H 6.29046 30.299 22.0292
O 4.6275 4.58487 31.8674
H 4.47543 3.678 0.855865
H 4.45016 5.09887 1.37777
O 24.1363 18.3736 6.65868
H 24.6133 17.9675 5.93492
H 24.2074 19.3141 6.49519
O 9.30326 25.8092 20.6489
H 8.50793 26.3411 20.6211
H 9.11693 25.0685 20.0719
O 29.3359 3.85651 31.1992
H 29.8587 3.05929 31.285
H 29.5413 4.36382 0.707106
O 19.5992 13.9915 22.8036
H 19.9672 13.9549 23.6865
H 18.848 13.399 22.832
O 8.64406 9.19388 2.95602
H 8.74794 9.21379 3.90735
H 8.83423 10.0889 2.67506
O 17.1119 8.46986 4.73866
H 16.5775 7.7137 4.98135
H 17.4675 8.78854 5.56822
O 15.847 22.3321 14.7169
H 16.4428 21.6157 14.4977
H 15.4616 22.0759 15.5548
O 5.23387 27.0205 26.6242
H 4.99624 27.3258 27.4997
H 6.17761 27.1695 26.566
O 7.05889 7.84422 5.46939
H 7.12285 8.76262 5.20731
H 7.27176 7.84558 6.40262
O 14.7775 12.8696 23.874
H 15.683 12.6417 23.6631
H 14.5773 12.3574 24.6574
O 18.0911 24.1984 15.8121
H 18.7814 23.9287 15.2063
H 17.3751 23.5846 15.6485
O 29.8104 17.7045 24.0116
H 29.7229 18.2695 24.7793
H 29.0418 17.9047 23.4774
O 27.7435 26.6427 20.124
H 27.1327 26.0438 20.5536
H 28.2885 26.9803 20.8347
O 19.7106 15.2513 1.99639
H 18.9854 14.6271 2.02236
H 19.2891 16.105 1.8982
O 1.42231 16.0042 18.4812
H 0.618872 15.7554 18.0243
H 2.05547 15.3286 18.2386
O 5.58561 12.6515 21.6414
H 5.25586 12.6872 20.7435
H 6.45115 13.0577 21.5955
O 9.73777 8.90666 16.6255
H 9.19575 9.69318 16.5636
H 10.1455 8.82767 15.7632
O 11.4648 0.863037 8.99896
H 11.0925 31.4473 9.5441
H 10.7702 1.51881 8.93711
O 22.7155 9.30979 12.9741
H 23.5265 9.80695 12.8672
H 22.0546 9.82689 12.5137
O 1.5888 6.0023 14.3073
H 2.19575 6.74122 14.2645
H 0.725884 6.39208 14.167
O 26.2306 22.0764 9.66895
H 25.4826 22.6546 9.81852
H 25.8407 21.2426 9.40633
O 19.6535 19.6822 7.86977
H 20.2379 19.75 7.11472
H 19.9274 18.8798 8.31395
O 18.0934 29.7688 18.4456
H 17.6168 30.4856 18.027
H 17.6234 29.6145 19.2651
O 17.5558 20.5229 13.3677
H 17.9194 19.658 13.5572
H 18.1137 20.8706 12.6719
O 13.811 31.1609 18.603
H 13.6584 31.3855 17.6852
H 12.9711 30.8187 18.9092
O 29.2068 12.907 25.6624
H 29.4135 13.3269 26.4974
H 28.828 13.6061 25.1295
O 1.38789 4.3264 25.6494
H 2.26575 4.03123 25.8912
H 1.53662 5.08888 25.0902
O 18.7125 22.3496 6.53646
H 19.0251 21.7989 7.25417
H 17.7622 22.2346 6.54211
O 20.9728 1.94598 31.0478
H 20.6886 2.02369 0.681111
H 20.1805 2.10514 30.5348
O 15.1967 24.6616 13.221
H 15.3016 23.8314 13.6859
H 15.3379 24.4406 12.3005
O 19.5952 8.45127 25.399
H 20.0663 9.19979 25.0329
H 19.4812 7.85438 24.6595
O 13.7513 7.95024 22.7267
H 13.9688 8.55361 23.4373
H 14.4226 8.10901 22.0631
O 1.66048 17.9341 20.345
H 0.972331 18.508 20.0083
H 1.51555 17.0991 19.9002
O 25.4588 7.47706 18.8438
H 26.02 7.51138 19.6185
H 26.0343 7.72321 18.1195
O 16.7455 28.6881 15.8543
H 16.4545 29.5993 15.8197
H 15.9751 28.2011 16.147
O 7.46947 25.6734 13.5417
H 8.32111 26.0215 13.2776
H 7.67392 25.023 14.2136
O 11.7676 21.6766 21.278
H 11.7244 20.7638 20.993
H 10.906 22.0354 21.0655
O 29.8517 23.2872 6.62249
H 30.7057 23.145 7.03074
H 29.8904 24.1844 6.2913
O 3.95994 15.4028 20.9915
H 4.8129 15.1252 20.6574
H 4.04354 16.3495 21.1058
O 7.10192 15.5028 10.8174
H 6.37831 15.3146 11.4151
H 7.41292 16.3685 11.0822
O 25.4158 23.8213 27.3841
H 24.563 24.1646 27.6507
H 25.9139 23.7567 28.1989
O 12.4641 5.82786 8.07388
H 13.1277 5.53385 8.69796
H 11.6302 5.60217 8.4861
O 21.5964 11.9013 29.4544
H 21.93 12.1812 28.602
H 21.6765 12.6767 30.0098
O 29.3806 29.6399 18.6118
H 30.1434 30.01 18.1674
H 29.7151 28.859 19.0527
O 22.5243 20.3203 26.5839
H 22.6407 19.3951 26.3679
H 23.3285 20.5624 27.0432
O 24.4281 22.8913 14.235
H 25.1953 22.3822 14.4966
H 24.618 23.1682 13.3386
O 14.0783 28.7603 1.17695
H 13.2115 28.3545 1.1646
H 13.916 29.6651 1.44369
O 16.3447 11.2464 15.7834
H 15.5632 11.117 16.3206
H 16.7243 10.3719 15.6972
O 7.35015 2.87519 3.80255
H 6.95357 3.61468 3.34199
H 7.38107 3.15157 4.71846
O 26.5396 4.01888 16.0489
H 26.3242 4.02535 16.9815
H 27.4964 4.02306 16.0236
O 4.94179 19.2942 18.1848
H 4.98964 19.1283 19.1263
H 4.10833 18.9084 17.9152
O 26.8596 16.6321 20.3333
H 27.3915 16.2358 19.6433
H 26.7858 15.9502 21.001
O 21.0744 19.7032 10.5203
H 21.4095 18.8256 10.3367
H 20.5748 19.9378 9.7383
O 14.9748 23.3366 1.78689
H 15.478 23.0734 2.55741
H 15.1351 24.2768 1.7053
O 21.8393 12.2626 2.00461
H 21.5772 12.8955 1.33597
H 21.0617 12.1568 2.55276
O 17.3683 18.5707 27.2924
H 17.5009 19.4068 26.8457
H 18.2162 18.1304 27.2343
O 18.1329 3.24481 25.929
H 17.2501 2.87483 25.9356
H 18.6975 2.51401 25.6772
O 18.3888 9.73256 31.0723
H 18.3165 9.77281 0.748503
H 17.561 9.34729 30.7849
O 19.9186 23.6885 14.062
H 20.6624 23.4397 14.6107
H 19.883 23.0126 13.3851
O 3.68211 7.20226 8.75352
H 3.41745 6.30312 8.55926
H 3.03653 7.51035 9.38956
O 22.4947 22.7162 22.3747
H 23.2378 23.2077 22.0246
H 22.86 22.2168 23.105
O 11.5086 27.8437 1.13148
H 10.926 28.5563 1.39404
H 11.61 27.3131 1.92169
O 14.5401 13.7536 1.58904
H 13.9081 13.7764 2.30754
H 14.5731 14.6554 1.26973
O 16.3577 5.61829 4.58984
H 17.2783 5.4592 4.38126
H 15.8992 5.49946 3.75806
O 5.50133 11.4253 27.7463
H 4.57136 11.3163 27.5476
H 5.93844 11.3498 26.8981
O 30.6374 12.8378 3.36813
H 31.0696 13.4199 3.99317
H 29.7426 12.7539 3.69738
O 14.8335 26.8654 16.7586
H 14.2539 27.0973 16.033
H 14.4838 26.0385 17.0903
O 29.1696 6.81397 3.59865
H 29.0581 7.56983 3.02204
H 28.289 6.62934 3.92527
O 15.9522 27.2793 21.8606
H 16.5533 27.8096 21.3373
H 15.3531 26.8941 21.2211
O 15.5605 21.3965 6.80352
H 15.0711 22.2044 6.64892
H 15.3379 21.1491 7.70101
O 4.54141 28.2643 29.378
H 3.97491 27.8674 30.0396
H 5.43 28.1067 29.6971
O 11.7373 31.523 6.45563
H 11.4586 31.8698 7.30317
H 12.3376 0.90697 6.11145
O 19.4948 28.9404 13.3614
H 19.5363 28.5002 12.5124
H 20.3793 29.2791 13.4996
O 17.5897 29.8781 29.473
H 17.3772 30.703 29.9096
H 18.5427 29.813 29.5336
O 19.5282 7.2026 6.80566
H 19.9862 7.83634 7.35777
H 18.6199 7.50475 6.79618
O 24.1372 1.16021 15.996
H 23.7916 31.5743 15.7689
H 25.0807 1.08626 15.8525
O 16.1674 21.5903 3.74093
H 16.9426 21.1539 4.09435
H 15.4308 21.1592 4.17426
O 11.9194 16.3176 15.7472
H 11.5302 17.1789 15.5958
H 11.5885 15.7755 15.0311
O 22.816 26.2866 11.6162
H 22.4312 26.2099 10.7431
H 23.2804 25.46 11.7472
O 27.7346 24.2484 12.9943
H 28.3497 24.0909 13.7106
H 28.1189 24.9748 12.5034
O 25.3156 16.4166 24.596
H 25.5225 15.7637 25.2647
H 25.0425 15.9031 23.8357
O 12.7465 30.076 28.5875
H 12.3838 30.0283 27.7029
H 13.2284 30.9029 28.605
O 28.8783 8.59525 30.7166
H 28.2937 7.84073 30.7881
H 29.657 8.25461 30.2763
O 2.14562 7.26903 17.1573
H 1.25369 7.04782 16.8894
H 2.5014 6.45142 17.5054
O 17.0738 14.2591 2.48231
H 17.0361 13.814 3.32888
H 16.3524 13.8806 1.97981
O 20.3439 1.72335 16.6516
H 21.129 2.26815 16.7068
H 19.6937 2.28189 16.2255
O 7.07316 4.47335 6.02672
H 6.24531 4.00218 5.93244
H 7.0659 5.11566 5.31707
O 3.39133 22.8912 24.3103
H 3.63774 23.5079 24.9996
H 2.56464 22.5134 24.6105
O 1.79634 28.6392 5.20018
H 1.52573 28.8697 4.31144
H 2.66947 28.2613 5.09479
O 12.3543 17.0533 4.55406
H 12.4382 17.6477 5.2996
H 11.794 17.5219 3.93538
O 9.43294 14.022 11.3849
H 8.66397 14.5893 11.3298
H 9.65907 13.8351 10.4738
O 3.85619 6.30809 2.78553
H 3.59227 6.76724 1.98819
H 3.05745 5.8773 3.08995
O 7.79404 24.6006 8.7779
H 7.36358 23.9395 8.23577
H 7.08373 25.1732 9.06732
O 3.06302 4.16252 8.14511
H 3.6572 3.96368 7.42148
H 2.22005 4.33099 7.72409
O 17.8334 12.078 18.5707
H 17.3357 12.2803 17.7785
H 17.923 12.9189 19.0191
O 4.68995 15.2868 15.8115
H 4.04866 14.9439 16.4339
H 5.18648 15.9349 16.3112
O 17.6107 11.6394 7.77905
H 17.3341 11.94 6.91343
H 17.0037 12.0634 8.38568
O 16.2492 25.6119 3.08588
H 16.5202 25.0832 3.83641
H 15.7545 26.3364 3.46878
O 26.8773 19.0614 13.1976
H 26.7741 19.9568 12.8755
H 26.0736 18.6158 12.9299
O 8.81881 19.8116 30.5065
H 9.56064 19.8105 31.1115
H 8.05952 19.9996 31.0583
O 23.0609 9.11407 29.872
H 22.195 8.71806 29.9707
H 22.9018 9.91921 29.3794
O 12.9281 22.9477 30.6768
H 12.0024 22.8284 30.4646
H 13.0076 23.8776 30.8898
O 28.9329 30.5382 14.5389
H 28.3664 29.9514 14.0379
H 29.491 29.9534 15.0514
O 5.49681 24.1901 29.1559
H 5.98208 25.0021 29.3022
H 5.83545 23.5858 29.8166
O 1.63211 25.2295 10.4715
H 1.01267 25.3461 11.1919
H 1.09148 25.263 9.68232
O 21.895 29.8824 23.2765
H 21.6502 29.2995 22.5579
H 22.8516 29.8529 23.2943
O 17.9035 31.5362 13.7791
H 17.012 31.4553 13.4401
H 18.2955 30.6756 13.6313
O 16.9763 4.84772 19.0784
H 17.896 5.09706 18.9874
H 16.9624 4.25086 19.8266
O 28.8863 26.5464 11.9382