3216
Atoms. Timestep: 0
O 2.9077 30.3576 25.6464
H 2.63147 30.8425 24.8687
H 2.50248 29.4959 25.5484
O 3.41391 22.7386 6.09679
H 3.97352 23.4909 5.90411
H 3.90237 21.985 5.76548
O 14.3715 24.6361 24.7776
H 14.7543 25.0813 25.5336
H 14.148 23.7633 25.1008
O 25.3166 30.6814 5.35636
H 25.2665 30.1617 4.55411
H 25.5237 30.0459 6.04149
O 31.5479 2.74417 9.06657
H 30.7956 2.58947 9.63787
H 32.1857 2.07852 9.32409
O 4.69326 28.8488 5.96584
H 4.46267 27.9763 6.28497
H 4.17322 28.9584 5.16973
O 29.0703 4.06359 25.6692
H 28.8612 4.78526 26.2623
H 29.9939 3.87578 25.8361
O 18.5535 24.4069 16.0962
H 18.7457 25.0661 15.4294
H 17.6997 24.054 15.8457
O 32.5143 20.8672 30.1438
H 31.68 21.0222 29.701
H 32.5997 21.5971 30.7572
O 21.9276 22.689 5.83105
H 22.42 22.0396 5.32891
H 21.1237 22.2361 6.08575
O 13.0001 27.7812 26.8779
H 12.4653 28.5391 27.1139
H 12.3924 27.1861 26.4388
O 8.7726 26.1017 16.2604
H 9.42901 26.7984 16.261
H 8.92843 25.6258 15.4447
O 11.5023 2.29865 25.9238
H 11.0944 2.85776 25.2625
H 12.133 1.76991 25.4351
O 21.8521 18.915 16.8743
H 22.15 19.573 17.5024
H 21.8794 19.3614 16.028
O 17.2579 23.5127 28.8723
H 16.6006 23.0407 29.3837
H 17.3426 24.3584 29.3125
O 8.84849 30.8205 1.3832
H 8.4122 30.0986 33.2728
H 8.70053 31.5807 33.1627
O 4.98802 5.74114 9.50073
H 4.74978 4.85315 9.23439
H 4.30871 6.29673 9.1185
O 25.1452 23.6454 13.0875
H 25.3374 24.0415 13.9375
H 24.6367 22.8621 13.2972
O 32.6117 24.9201 11.9719
H 32.1072 24.1188 12.1121
H 32.5547 25.0778 11.0295
O 7.44634 9.79096 32.9262
H 7.62625 9.75779 31.9866
H 8.30042 9.94835 33.3286
O 21.6076 25.4937 32.0462
H 21.5237 26.0073 31.2429
H 21.5278 26.1361 32.7513
O 16.2548 10.8303 3.16715
H 16.269 11.7658 2.96496
H 15.6343 10.4587 2.54017
O 8.11045 28.8175 27.3215
H 8.21372 28.1822 26.613
H 8.87981 28.6862 27.8757
O 25.6412 28.8744 12.4947
H 24.7503 29.1735 12.3128
H 26.1314 29.0829 11.6995
O 8.26938 24.7998 18.6355
H 8.49808 25.3461 17.8835
H 7.52298 25.2446 19.0371
O 19.9361 5.34814 19.8726
H 20.8668 5.30741 19.6526
H 19.7117 6.27548 19.7958
O 18.5228 32.5201 17.263
H 19.3656 32.121 17.4789
H 18.7381 33.2124 16.638
O 19.4032 2.80416 4.21354
H 18.521 3.04727 4.49443
H 19.4302 1.85171 4.30484
O 26.741 6.38394 1.11902
H 26.5246 5.45181 1.1418
H 26.426 6.724 1.95648
O 8.89394 8.33272 15.9462
H 8.76485 8.57217 15.0285
H 9.05976 7.39018 15.9273
O 8.86895 16.2765 6.30605
H 9.10648 16.8474 7.03675
H 9.01811 16.8107 5.52588
O 25.4264 4.52299 29.2704
H 25.9113 4.2714 28.4844
H 25.8088 3.99154 29.9687
O 2.45481 24.8601 30.6104
H 2.5203 24.336 31.4087
H 3.10108 24.4764 30.0177
O 13.4047 25.9228 3.27137
H 14.3147 25.8772 3.56459
H 13.1677 26.8453 3.36685
O 30.269 17.9798 20.5194
H 29.5312 17.4309 20.785
H 30.4378 17.7315 19.6105
O 5.34072 14.5527 29.8516
H 4.6109 14.2526 29.3098
H 5.52719 13.8154 30.4328
O 30.5497 25.4662 16.7672
H 29.9141 26.1634 16.6054
H 31.1661 25.8442 17.3945
O 17.0556 19.725 7.36366
H 16.8997 19.5782 8.29659
H 17.8973 20.1797 7.32969
O 5.71144 12.1392 16.9265
H 6.51674 12.3699 16.4633
H 5.28744 11.492 16.363
O 28.8881 3.75697 31.0613
H 29.0454 3.86755 30.1236
H 27.9691 3.49603 31.1214
O 8.47459 25.073 27.3697
H 8.3253 25.6457 26.6175
H 8.09451 24.2334 27.1113
O 21.274 17.2526 8.83037
H 22.0904 17.6481 9.1357
H 20.5855 17.78 9.2354
O 2.28786 23.1006 22.2764
H 2.24372 22.1763 22.5215
H 1.43922 23.2826 21.8728
O 13.6055 17.4009 14.7583
H 13.4876 17.6326 15.6795
H 12.8598 16.8361 14.5555
O 16.7856 14.2601 26.9931
H 16.7631 13.7952 26.1566
H 16.1483 13.8009 27.54
O 21.2959 16.2998 18.4773
H 20.3562 16.1676 18.352
H 21.503 17.0689 17.9463
O 25.9378 17.0701 23.104
H 26.6229 16.7801 22.5016
H 26.3206 17.8197 23.5598
O 13.1584 10.3678 26.639
H 12.8628 10.971 25.957
H 13.444 9.58829 26.1626
O 9.73888 9.12317 26.0871
H 9.59074 10.0618 26.2026
H 9.91856 8.79821 26.9694
O 18.7636 10.5843 19.6688
H 18.4924 10.6127 20.5864
H 19.3527 11.3322 19.5695
O 30.0939 10.4124 16.0086
H 30.9611 10.1942 16.3499
H 29.4845 10.0401 16.646
O 2.31627 8.39542 11.1197
H 2.13643 9.02065 11.8218
H 2.43164 8.93755 10.3393
O 17.0728 28.5485 9.43393
H 17.7662 28.452 10.0867
H 17.5099 28.9342 8.67475
O 6.96576 29.0899 3.89973
H 6.14489 29.5815 3.8731
H 6.85161 28.4711 4.62105
O 23.2696 9.16644 32.8863
H 22.6166 9.78554 33.2127
H 23.8097 8.96246 1.30768
O 23.0924 29.3435 32.1558
H 22.9789 28.7867 31.3855
H 23.0345 28.7415 32.8977
O 18.7528 7.30957 7.68032
H 19.0967 6.71474 8.3468
H 18.3087 6.73764 7.05432
O 2.64887 11.9829 11.0835
H 2.50788 11.2542 11.6878
H 2.4633 12.765 11.6032
O 33.3124 1.529 20.8022
H 33.0041 32.9774 20.9525
H 32.8155 1.82958 20.0414
O 11.139 14.0408 19.1857
H 10.4235 14.6089 18.9
H 11.9245 14.4353 18.8068
O 4.94147 6.82074 28.5781
H 4.73522 7.52283 27.9611
H 4.93078 6.02411 28.0476
O 5.9856 2.85498 15.3179
H 6.87036 2.82278 14.954
H 5.95184 3.68487 15.7936
O 1.61168 7.27728 20.0024
H 2.10068 7.32405 20.8239
H 1.52038 8.18891 19.7252
O 20.0357 13.1739 19.0897
H 20.183 13.6247 19.9212
H 19.2129 13.5373 18.7622
O 15.634 11.0601 30.8277
H 15.1592 10.8449 31.6305
H 15.7016 12.0149 30.8374
O 28.1609 5.12825 17.2869
H 27.2887 4.76125 17.4308
H 28.2448 5.18145 16.3348
O 16.2864 11.2279 8.00746
H 17.2208 11.4034 7.89629
H 15.8605 11.7625 7.33735
O 28.8395 17.5457 26.8817
H 28.4325 18.1457 26.2567
H 29.2099 16.8493 26.3395
O 10.002 12.3318 9.32057
H 10.3977 12.5898 10.1531
H 9.46264 13.0814 9.06873
O 31.1595 6.14347 13.8671
H 31.4671 6.60848 13.0891
H 31.1408 5.22308 13.6049
O 19.7019 21.169 18.1698
H 19.6996 20.9127 17.2475
H 20.6233 21.1332 18.4265
O 5.71518 18.7624 28.3667
H 5.67144 19.1182 27.4791
H 4.89081 19.0296 28.7732
O 13.1617 19.5226 28.033
H 13.6187 19.7981 28.8276
H 13.7361 18.8644 27.6417
O 4.98026 7.87395 11.8792
H 4.85872 7.23562 12.5821
H 4.10059 8.20802 11.7037
O 15.5579 25.7176 10.2367
H 15.7763 25.1846 11.0011
H 15.1074 26.4813 10.5974
O 18.4698 25.778 8.21653
H 18.5471 25.0732 8.85961
H 19.333 26.1915 8.20861
O 10.1551 28.2366 2.99048
H 10.7613 28.6269 2.36092
H 10.7181 27.8887 3.68197
O 27.8541 5.92313 22.2122
H 27.2665 5.96481 22.9667
H 28.4815 6.63132 22.3572
O 2.95011 14.0645 28.5506
H 2.3583 14.76 28.2638
H 2.41859 13.2691 28.5194
O 22.9455 2.79007 1.97904
H 22.2791 2.43449 1.39104
H 22.7678 3.73034 2.0025
O 20.0965 15.6655 13.4924
H 19.9713 16.5594 13.8107
H 20.2273 15.1446 14.2848
O 30.4407 18.6665 23.4867
H 30.8077 17.9211 23.9619
H 29.4998 18.6199 23.6567
O 18.6551 22.676 21.7815
H 18.53 22.854 20.8493
H 18.6575 21.7209 21.8452
O 3.0142 15.2548 14.5216
H 3.24526 14.7124 15.2756
H 3.61131 16.0013 14.571
O 5.98843 11.629 28.307
H 5.63589 11.0016 28.938
H 5.87702 11.203 27.4571
O 27.6359 8.2771 13.5902
H 26.6902 8.17787 13.6999
H 28.008 7.49423 13.9962
O 27.873 10.8587 19.7086
H 27.2796 11.3397 19.1317
H 28.6824 11.3696 19.7004
O 10.8157 19.4519 2.2918
H 11.7693 19.5301 2.31768
H 10.6282 18.643 2.76815
O 17.5751 32.3132 31.8989
H 17.8122 32.4059 32.8217
H 17.9984 33.0549 31.4667
O 21.9128 3.41062 5.43539
H 21.1176 3.37499 4.90378
H 21.6205 3.74792 6.28216
O 18.497 28.8394 5.14893
H 18.9198 29.146 4.34676
H 17.5721 28.7574 4.9165
O 1.43058 25.096 24.0974
H 2.12219 25.7537 24.1712
H 1.6981 24.5482 23.3595
O 16.2383 16.2192 29.5675
H 15.6332 16.7325 30.1027
H 15.8791 16.2717 28.6818
O 14.9293 2.01257 22.197
H 15.7403 1.6926 22.5921
H 14.6804 1.33002 21.5738
O 7.14664 28.4803 14.2551
H 6.55034 27.7602 14.4603
H 6.5965 29.1304 13.8181
O 13.4046 7.0715 32.3163
H 12.6538 7.42599 31.84
H 13.8388 7.84017 32.6862
O 27.481 24.899 1.96291
H 27.288 25.7337 1.53608
H 28.4369 24.8611 1.99477
O 21.5496 23.905 18.5174
H 21.9707 24.6044 18.0176
H 22.0383 23.1157 18.2843
O 16.9966 2.18409 9.77369
H 16.9782 2.29233 10.7246
H 16.3265 1.52453 9.59427
O 2.74208 17.99 29.7497
H 2.90823 17.9361 28.8085
H 3.44097 17.4704 30.1469
O 10.1843 27.9209 28.9398
H 10.9517 28.3983 29.2551
H 10.4148 26.9981 29.0474
O 5.12652 4.92912 31.5746
H 4.71668 4.51668 30.8142
H 6.00703 4.55494 31.6051
O 27.6174 11.9294 1.73561
H 26.9787 12.2082 1.07948
H 28.4301 12.366 1.48012
O 30.7667 16.9116 8.09256
H 30.5596 17.6573 8.65592
H 31.4462 16.4333 8.56765
O 8.05469 3.0951 26.8268
H 8.38334 3.85659 27.3046
H 8.62501 2.37628 27.0993
O 29.5889 15.1169 5.30072
H 30.1061 14.3775 4.98139
H 30.2375 15.7382 5.63173
O 23.2807 4.82373 10.9149
H 23.5046 5.55664 10.3414
H 23.3594 4.04981 10.3572
O 15.2311 4.76912 22.5366
H 15.4926 4.75876 23.4574
H 14.9375 3.87527 22.3605
O 2.34541 14.4691 19.3979
H 2.90247 14.4465 18.6198
H 1.51938 14.0782 19.1131
O 13.5309 15.2724 18.3005
H 13.886 15.2718 19.1893
H 13.9459 14.5217 17.8757
O 17.2461 5.10329 31.8127
H 16.5816 5.19961 31.1304
H 17.2555 5.94965 32.2597
O 25.75 10.7815 5.80947
H 24.9399 10.4279 5.44228
H 25.7654 10.4599 6.71089
O 3.64071 28.4555 15.6215
H 4.07144 29 16.2805
H 4.26773 27.7549 15.4419
O 12.8155 21.9245 5.51269
H 12.7749 22.4061 4.68645
H 12.1201 21.2705 5.44367
O 18.2283 7.33736 23.0653
H 17.6508 6.95917 23.7284
H 19.0231 7.57153 23.5446
O 19.6452 1.69428 9.12557
H 18.7144 1.71773 9.34752
H 19.8043 2.52112 8.67031
O 23.1321 21.6271 21.6695
H 23.6039 22.4554 21.5823
H 22.9004 21.3872 20.7723
O 6.14266 8.85122 9.03375
H 6.10522 8.40078 8.18999
H 6.99044 9.29563 9.03115
O 7.75794 6.33728 19.4406
H 8.37681 5.66039 19.1666
H 7.1915 6.46661 18.6799
O 6.86161 16.3351 28.1888
H 6.39357 15.5054 28.0949
H 6.19507 16.9543 28.4863
O 1.49503 12.3803 14.9635
H 2.3112 12.8271 14.7389
H 1.51005 11.577 14.4432
O 6.00324 7.15362 6.48114
H 6.20315 6.31363 6.06799
H 5.75498 7.72532 5.75468
O 11.0653 13.8616 25.0541
H 10.5847 14.6689 25.237
H 11.0999 13.814 24.0987
O 20.9566 23.29 25.4173
H 21.8193 23.6254 25.6612
H 21.1415 22.5112 24.8924
O 31.5088 10.6578 13.2328
H 32.4381 10.4297 13.2566
H 31.2517 10.7132 14.1532
O 20.7227 14.3002 15.668
H 20.2524 14.5589 16.4606
H 20.8826 13.363 15.779
O 14.6569 5.55232 9.36993
H 13.9839 5.19248 9.94773
H 15.4764 5.42624 9.84827
O 23.3429 26.7784 21.5089
H 24.2002 27.073 21.2016
H 22.7811 27.5491 21.4279
O 4.96139 32.6494 16.1153
H 4.17684 32.51 15.5849
H 5.12897 1.24774 16.0532
O 13.1581 12.7486 31.3338
H 12.367 13.2846 31.3903
H 12.9969 12.1598 30.5965
O 7.32205 20.2207 24.2451
H 6.46661 20.2766 24.671
H 7.88589 20.7953 24.763
O 20.7628 4.05743 29.5471
H 21.5604 3.62314 29.2449
H 20.3539 4.39113 28.7486
O 17.6062 33.3667 13.562
H 18.0731 32.9731 12.8249
H 17.4909 1.94118 13.3111
O 26.1716 12.1935 18.3375
H 25.4042 12.1064 17.772
H 26.7788 12.7373 17.8358
O 3.20372 7.40263 7.27158
H 4.06832 7.40221 6.86084
H 3.0979 8.29279 7.6072
O 27.4042 18.0561 17.0312
H 28.2676 18.3546 16.7455
H 27.5816 17.2747 17.5549
O 1.61161 33.14 9.49409
H 2.12101 32.4794 9.96352
H 1.94558 33.1082 8.59761
O 23.557 26.0961 18.4793
H 23.6093 25.8089 17.5678
H 23.4041 27.0395 18.4253
O 12.2742 14.1841 14.3177
H 13.0552 13.9825 13.8023
H 12.279 13.5376 15.0236
O 20.1161 30.6725 32.0668
H 20.9101 30.2075 32.3306
H 20.3736 31.5942 32.0457
O 11.2052 8.90288 8.46407
H 10.9808 7.99597 8.67241
H 11.8523 8.83481 7.76207
O 15.3002 7.58918 7.3073
H 14.9161 6.99196 7.94918
H 15.7537 7.01693 6.68835
O 18.2057 13.384 2.94291
H 18.997 12.8487 3.00385
H 18.2316 13.7508 2.05916
O 18.4476 7.87272 12.0316
H 17.6728 8.2652 11.6292
H 18.8329 7.33717 11.3381
O 8.37475 27.0945 6.24329
H 8.998 26.4832 5.85065
H 7.9845 26.6066 6.96847
O 4.97174 1.71374 11.1094
H 4.68148 2.13377 10.2997
H 5.69008 1.14184 10.8389
O 18.9653 2.13825 30.8542
H 19.7847 2.0466 31.3403
H 19.2388 2.30342 29.9519
O 9.29023 4.19985 18.5859
H 9.06593 3.28381 18.7496
H 10.1293 4.32444 19.0294
O 9.87914 1.33743 27.9735
H 10.5738 1.66948 27.4048
H 10.0348 1.76346 28.8164
O 7.98483 4.80228 5.42588
H 7.1022 4.56045 5.70645
H 8.42706 3.96637 5.27784
O 19.26 15.4705 27.6338
H 19.7953 14.7778 28.0206
H 18.5189 15.0098 27.2403
O 18.0951 24.1549 2.93787
H 18.344 23.4418 2.34976
H 18.8577 24.2767 3.50344
O 14.9277 30.7204 5.63355
H 14.3503 30.6547 6.39421
H 15.5634 31.3949 5.87233
O 5.13307 20.5031 5.48749
H 5.37804 20.4603 4.56316
H 5.91495 20.8363 5.9278
O 33.0295 21.892 5.71253
H 32.5158 22.4706 5.14902
H 1.57931 22.2354 5.65965
O 27.455 10.9165 14.4786
H 27.869 10.1222 14.1412
H 26.9345 11.2456 13.7459
O 28.8645 11.7246 5.73091
H 29.0489 10.7897 5.8209
H 29.2886 12.1269 6.48886
O 24.8505 10.1509 8.3324
H 25.2716 9.59 8.98379
H 23.9502 10.2456 8.64328
O 2.29274 12.5919 7.08124
H 2.10503 11.6877 7.33303
H 2.96113 12.5176 6.4001
O 32.2415 2.86911 18.673
H 31.3073 2.87831 18.8814
H 32.4838 3.79339 18.6165
O 23.4146 2.94 21.5027
H 22.5151 2.77268 21.2213
H 23.3481 3.7015 22.0788
O 5.0511 16.0284 1.93603
H 4.60598 15.9109 1.09681
H 5.88604 15.5723 1.83076
O 13.3694 32.2217 29.0706
H 13.6374 31.4731 29.6034
H 13.3302 32.9531 29.6869
O 13.9829 32.321 20.0274
H 14.1433 31.5652 20.5924
H 14.8543 32.5993 19.7457
O 18.716 15.8636 17.969
H 18.1984 16.6666 18.0288
H 18.0787 15.1584 18.082
O 15.9847 25.3844 4.34786
H 16.5221 25.0147 3.64732
H 15.7252 24.629 4.87538
O 5.20128 24.8906 5.86163
H 4.44843 25.4443 6.06884
H 5.7506 24.9297 6.64455
O 8.72656 2.02572 1.32713
H 8.91773 2.8617 33.244
H 8.84325 2.19935 2.26119
O 1.85087 5.34226 25.732
H 1.24673 4.99507 26.3883
H 1.6661 4.83334 24.9427
O 24.9094 19.0517 19.1492
H 25.6986 19.4357 19.5312
H 24.3032 19.7872 19.0609
O 22.5663 22.1283 1.84735
H 22.3675 22.363 33.283
H 23.5138 22.2422 1.92239
O 25.2687 28.8964 3.10039
H 25.8115 28.444 2.45466
H 24.7618 28.1999 3.51795
O 23.7808 17.3103 20.9354
H 23.9769 16.448 20.5692
H 24.0465 17.9269 20.2532
O 25.4779 25.8306 30.1919
H 25.2361 25.3974 31.0105
H 25.6824 26.73 30.4477
O 21.7233 29.0529 21.998
H 20.8744 29.0005 22.4371
H 22.3448 29.2472 22.6996
O 1.94574 30.4341 29.337
H 2.44656 29.6188 29.3631
H 1.44617 30.3828 28.5221
O 10.4473 10.0395 2.55185
H 11.1104 10.3616 1.94126
H 10.9118 9.40507 3.09776
O 30.4965 31.2624 7.39335
H 30.3889 31.657 8.25877
H 29.6966 31.4956 6.92213
O 21.7316 17.4443 23.7011
H 21.4875 17.3132 22.7849
H 21.0915 16.9324 24.1956
O 27.6629 11.1229 8.65319
H 28.2869 11.8136 8.87635
H 28.172 10.4967 8.1384
O 32.2552 24.7092 29.0726
H 32.285 24.3751 28.1761
H 33.1488 24.6021 29.3984
O 9.50853 22.8571 23.7633
H 9.92604 22.1294 24.2243
H 10.1909 23.198 23.1851
O 4.43202 17.7712 7.30497
H 4.7679 18.3243 8.01026
H 4.96136 16.975 7.3516
O 20.3319 8.18639 19.7019
H 19.7948 8.97478 19.7807
H 20.9117 8.21397 20.4631
O 16.339 10.0219 18.1084
H 16.8311 10.3548 18.8589
H 16.026 10.8072 17.6593
O 14.4196 18.9695 5.65035
H 13.5979 18.612 5.98672
H 14.167 19.4521 4.86323
O 2.69507 20.4551 23.8978
H 3.56416 20.2205 24.2232
H 2.11399 20.3198 24.6463
O 19.2227 31.0623 12.8568
H 19.1621 30.2085 12.4284
H 19.5506 30.8676 13.7347
O 31.9084 8.97406 27.1563
H 31.831 9.92039 27.035
H 31.207 8.60521 26.6194
O 9.12493 29.5005 11.3586
H 8.59937 30.2202 11.0093
H 9.73668 29.2862 10.6543
O 30.0103 24.7976 2.26313
H 30.1503 24.1866 1.5397
H 30.2122 24.2896 3.04883
O 21.479 22.864 14.4747
H 21.6493 23.5674 15.1012
H 22.2922 22.3595 14.4534
O 3.40885 9.887 4.05343
H 4.01608 10.0625 3.33462
H 2.62854 10.3981 3.83863
O 8.39738 9.92195 30.1944
H 7.74658 9.30477 29.86
H 9.10678 9.36886 30.5216
O 32.409 25.2334 9.32052
H 31.9022 26.0253 9.14047
H 31.8778 24.522 8.96274
O 19.4657 11.0971 24.5113
H 19.6262 10.4895 25.2334
H 20.3384 11.3731 24.2313
O 5.00742 16.2816 18.502
H 4.75836 17.1532 18.1946
H 5.59274 16.446 19.2413
O 5.5724 27.0866 24.8963
H 5.46688 26.153 25.0789
H 6.51896 27.2283 24.9096
O 28.471 23.412 13.1096
H 28.4094 23.3146 14.0598
H 29.2891 22.9734 12.876
O 27.0823 9.31601 3.79471
H 26.6613 9.82591 4.48685
H 28.0027 9.27339 4.05398
O 30.291 25.5345 7.21545
H 30.9416 26.2055 7.00907
H 30.4034 24.8731 6.53267
O 6.18789 1.33742 1.74398
H 6.22258 32.7333 1.60366
H 7.07892 1.63909 1.5671
O 7.8438 29.5773 7.54437
H 8.71172 29.9709 7.63431
H 8.00435 28.7382 7.1128
O 9.79768 6.95157 6.31267
H 9.14483 6.33867 5.97448
H 9.94882 6.66789 7.21428
O 4.68585 11.6787 5.38384
H 4.57171 12.4317 4.80394
H 4.25091 10.9575 4.92908
O 22.7986 2.37048 28.1887
H 23.5282 2.97479 28.3259
H 22.5556 2.49207 27.2709
O 9.62621 25.8843 1.69279
H 9.17713 25.8451 33.1905
H 9.63021 26.8142 1.91963
O 25.2337 9.9333 24.5951
H 24.33 10.2483 24.5768
H 25.5387 10.0265 23.6926
O 23.6934 15.1201 3.14881
H 22.9743 15.593 3.56775
H 23.4715 14.196 3.26264
O 13.6701 26.7831 15.6999
H 13.8495 25.8961 15.388
H 13.9291 27.3499 14.9733
O 23.0337 5.36236 28.3462
H 22.9614 5.68736 27.4488
H 23.9239 5.01559 28.4049
O 32.9468 15.4255 2.00448
H 32.7451 14.4918 2.06686
H 1.08261 15.6221 2.81022
O 16.6674 3.17034 6.04206
H 16.9368 4.08758 5.99417
H 16.3881 2.95547 5.15208
O 8.34316 32.9857 16.5761
H 8.38906 33.178 17.5127
H 8.65068 1.44435 16.1513
O 7.45852 17.9014 1.13381
H 7.4842 18.4874 1.89024
H 7.95682 17.1319 1.40928
O 25.0816 22.118 3.54448
H 25.3201 22.986 3.86979
H 25.85 21.5756 3.72232
O 14.6999 17.2605 27.3576
H 15.4096 17.9012 27.4016
H 14.5338 17.1502 26.4214
O 19.3753 9.73887 17.0357
H 18.9327 9.19727 16.3823
H 18.8066 9.70005 17.8047
O 10.269 17.3625 13.0649
H 10.6638 18.1173 12.6283
H 9.63529 17.0238 12.4326
O 27.3117 31.2484 32.3213
H 26.8402 30.6449 32.8955
H 27.3654 32.0628 32.8214
O 32.3859 1.62474 28.4835
H 32.7864 2.39681 28.8831
H 31.9184 1.96465 27.7205
O 13.9978 11.4676 20.5722
H 14.6426 11.9343 21.1038
H 13.2628 11.3145 21.1661
O 19.6276 9.02747 26.3813
H 19.9016 8.46941 25.6535
H 18.9841 8.50248 26.8572
O 5.3541 30.3275 9.4015
H 5.62033 29.4381 9.63446
H 5.95539 30.8928 9.88643
O 16.0007 14.5218 4.12641
H 16.1869 15.1424 4.83098
H 16.8627 14.2658 3.79812
O 8.35398 14.4581 22.2951
H 8.80044 13.667 22.5968
H 7.5977 14.5431 22.8757
O 11.9643 19.3322 19.962
H 11.4026 20.0917 19.8071
H 12.5393 19.6011 20.6785
O 33.2047 29.9881 32.409
H 1.30112 29.2096 32.0657
H 1.42238 30.7168 32.1408
O 15.0508 12.3398 5.68546
H 15.3734 13.1596 5.31107
H 15.1496 11.6991 4.98121
O 17.9041 10.7833 22.2065
H 18.2758 10.8886 23.0823
H 17.1825 10.1655 22.3249
O 28.0969 21.6621 22.9088
H 28.9916 21.4208 22.6686
H 27.7802 20.9229 23.4279
O 18.2568 24.1266 24.2141
H 17.7129 23.785 24.9239
H 18.1868 23.4702 23.521
O 15.5307 22.0327 22.6036
H 15.4169 21.8937 23.5438
H 16.3355 22.5459 22.5325
O 9.442 5.74196 32.8104
H 8.76543 5.39985 32.2261
H 9.69098 6.58145 32.4238
O 18.6458 17.1993 2.04593
H 19.0199 16.5322 2.62145
H 17.8799 17.5231 2.51997
O 18.9098 23.8857 6.13324
H 18.2262 23.7706 5.47321
H 18.6332 24.6532 6.63392
O 14.7827 9.08254 14.6392
H 14.4919 9.1794 15.546
H 14.699 9.95973 14.2653
O 22.7383 33.3515 4.21855
H 22.9611 1.3967 3.37204
H 22.6523 1.75743 4.80954
O 19.4973 21.085 6.86056
H 18.9974 21.9 6.81303
H 19.881 21.0896 7.73748
O 5.78321 11.7822 8.93261
H 6.115 12.0482 8.07506
H 5.76769 10.8257 8.89779
O 5.14083 3.43681 24.6282
H 4.77729 4.05511 23.9944
H 4.45842 2.77425 24.7357
O 21.1799 31.877 25.4583
H 20.6085 31.2372 25.0337
H 21.8235 31.3483 25.93
O 16.0339 28.6056 4.38869
H 15.7139 27.9411 4.99882
H 15.6572 29.4257 4.70783
O 32.6352 27.4977 29.0102
H 1.095 27.7173 29.4845
H 32.6011 26.5412 29.0262
O 11.3693 4.5034 13.6552
H 11.7161 4.67567 12.7798
H 10.621 3.9251 13.5074
O 7.36347 12.1528 25.0516
H 7.89238 11.9596 24.2775
H 6.67033 11.4927 25.0395
O 19.4309 6.00206 10.2125
H 18.5369 5.66629 10.2779
H 19.985 5.22498 10.2853
O 12.2017 4.79703 11.1067
H 11.7116 5.02239 10.316
H 12.1909 3.84021 11.1312
O 9.03639 20.0157 21.1832
H 8.63155 19.6682 20.3885
H 9.47339 20.8184 20.8986
O 21.5714 3.76791 16.3091
H 20.8593 3.1749 16.0693
H 22.2595 3.58821 15.6684
O 27.0302 15.6779 14.885
H 27.7227 16.3132 14.7033
H 27.4632 14.9883 15.3883
O 28.6507 6.43499 30.8922
H 28.4937 6.37374 29.95
H 28.9074 5.54984 31.1508
O 18.7293 11.2868 29.1207
H 17.9331 11.3241 29.6507
H 18.4271 11.0218 28.252
O 29.7143 16.4918 11.4966
H 29.6712 17.2749 10.9479
H 29.3948 16.78 12.3517
O 32.6957 9.48238 16.8122
H 32.911 8.56759 16.6305
H 1.13404 9.96964 16.5482
O 27.9572 2.18113 9.23749
H 27.3346 2.62182 8.65926
H 28.2709 2.87071 9.82256
O 26.7864 23.0201 18.4765
H 27.6911 23.0543 18.1657
H 26.3055 23.5928 17.8789
O 32.1743 3.44892 1.96061
H 32.6441 3.96274 1.30373
H 31.8335 4.09896 2.57507
O 27.7304 4.58424 3.54787
H 27.1886 4.10639 2.91985
H 27.1853 5.32144 3.82292
O 12.5722 13.8345 9.34223
H 12.6477 14.7479 9.06628
H 12.1389 13.8764 10.1947
O 14.5941 32.9024 9.5976
H 14.3376 32.9218 8.6756
H 14.6074 31.9723 9.82348
O 6.32133 12.5847 32.0141
H 7.15197 12.6736 32.4814
H 5.65644 12.829 32.6579
O 2.96516 30.9918 7.68195
H 3.51599 31.5117 7.09677
H 2.13596 30.9002 7.21262
O 31.8453 27.5659 2.12565
H 31.2762 27.2426 1.42721
H 31.2994 27.5398 2.91147
O 19.3607 20.7786 15.5115
H 19.8252 21.4341 14.991
H 19.5807 19.9439 15.0978
O 28.9516 29.2565 18.0948
H 29.576 28.909 18.7317
H 28.1528 29.4079 18.5999
O 1.76401 10.1769 19.7509
H 2.48691 10.2377 20.3753
H 2.18381 10.2273 18.8921
O 3.75326 1.74347 18.607
H 3.12222 1.0663 18.3631
H 4.47444 1.26387 19.0145
O 7.85213 2.09545 8.64864
H 7.86328 1.37631 9.28026
H 6.96976 2.46032 8.71596
O 11.5221 24.144 17.9441
H 11.9597 24.9386 18.2496
H 11.1856 23.7339 18.7408
O 29.5457 3.35282 1.42436
H 30.5001 3.4252 1.41597
H 29.2892 3.45524 32.85
O 9.59374 16.2103 24.7866
H 8.81284 16.3861 25.3115
H 9.3408 16.4455 23.8939
O 19.6192 26.3528 4.61446
H 19.182 27.1681 4.86026
H 20.0368 26.5479 3.77558
O 31.1609 13.2768 15.2955
H 32.0656 12.9643 15.3089
H 31.0047 13.5978 16.1837
O 6.59567 17.4576 20.3383
H 7.14787 17.1167 21.042
H 7.18513 17.9958 19.81
O 16.7164 17.6729 16.2156
H 17.5294 17.1881 16.0735
H 16.0246 17.0588 15.9695
O 23.7186 22.4358 24.997
H 24.3252 23.048 24.5806
H 24.2829 21.812 25.4538
O 13.2033 3.81133 27.4027
H 12.5481 3.35783 26.8723
H 13.2363 3.31427 28.22
O 19.5976 4.75339 27.2779
H 20.3302 5.0098 26.7178
H 19.0574 5.541 27.342
O 17.1879 20.82 3.4568
H 16.3666 20.7755 2.96726
H 17.0439 21.5096 4.1049
O 25.8297 28.5877 26.0754
H 26.0375 28.3395 25.1746
H 24.9721 29.0088 26.0166
O 33.0735 23.9838 26.513
H 33.3502 24.6091 25.8432
H 1.52128 23.4817 26.7135
O 29.8059 19.4265 16.2158
H 30.387 20.1144 15.8913
H 30.3964 18.741 16.5281
O 24.4138 1.1507 7.2938
H 23.6937 1.45337 7.84698
H 24.5913 1.88602 6.70725
O 28.8538 13.4337 13.3891
H 28.0892 14.0097 13.3923
H 29.3713 13.726 12.6388
O 20.5373 9.69482 30.417
H 20.676 9.98587 31.3183
H 19.6622 10.0123 30.1943
O 8.3991 21.8524 11.5357
H 8.56401 21.4909 10.6648
H 9.22293 22.2738 11.7805
O 33.3258 15.9675 21.3753
H 1.44606 15.3478 20.811
H 1.06981 16.8095 20.9283
O 15.7314 18.4879 18.9328
H 15.6004 18.1304 18.0546
H 16.6819 18.5101 19.0436
O 30.8366 22.2447 25.0437
H 30.8276 21.3738 25.441
H 31.4759 22.7368 25.5588
O 19.0872 28.6348 19.1826
H 18.9714 29.3831 19.768
H 19.4345 27.942 19.7445
O 4.36323 21.5957 28.8441
H 4.00987 22.378 28.4205
H 5.24292 21.5016 28.4787
O 3.65302 26.441 23.1187
H 4.37821 26.9038 23.5383
H 4.04623 25.6375 22.778
O 17.1859 4.73285 10.1052
H 17.1075 4.59418 11.049
H 17.1036 3.85765 9.72636
O 19.0729 14.8087 21.4484
H 19.4441 14.3844 22.2219
H 19.6178 15.5844 21.3155
O 2.03425 27.4187 4.46224
H 2.59885 27.9272 3.88015
H 1.76145 26.6673 3.93578
O 2.52144 16.5573 10.4953
H 3.47811 16.5873 10.5059
H 2.25466 17.4623 10.3342
O 3.08607 28.7033 21.4233
H 3.118 28.5113 20.4861
H 3.35664 27.8875 21.8447
O 3.09005 22.6156 26.172
H 3.14538 21.7772 25.7135
H 3.89807 23.0716 25.9367
O 2.8942 9.86065 27.2343
H 2.78911 9.05585 26.7269
H 3.77399 10.1685 27.0165
O 30.1242 10.8435 22.6983
H 30.4547 10.8934 21.8014
H 29.7083 9.98308 22.7532
O 6.23172 28.7203 29.4821
H 6.61771 28.7738 30.3564
H 6.55565 27.8926 29.127
O 13.706 20.1256 3.18873
H 14.2373 20.0345 2.39777
H 13.3504 21.0129 3.1381
O 23.346 25.0582 11.3977
H 24.0578 24.7637 11.9659
H 23.0628 24.2676 10.9384
O 21.3217 29.9844 18.2575
H 20.5602 29.4786 18.5412
H 21.1144 30.2477 17.3608
O 15.956 22.3002 11.3185
H 16.8249 22.6323 11.0931
H 15.846 21.5236 10.7698
O 27.2438 22.9293 28.4383
H 27.7565 22.1681 28.7103
H 26.5466 22.9946 29.091
O 20.1741 11.5563 3.65947
H 20.4522 11.2896 2.78327
H 20.8784 12.1239 3.9725
O 32.2682 13.3572 26.5597
H 32.662 14.1543 26.9143
H 33.014 12.808 26.3181
O 16.5363 26.253 23.3843
H 16.8276 26.8125 22.6643
H 17.1724 25.5381 23.4051
O 19.259 2.1275 15.4292
H 18.7528 2.88566 15.7211
H 18.7163 1.72272 14.7525
O 2.38673 27.7628 18.551
H 1.43975 27.6691 18.6544
H 2.49236 28.2365 17.726
O 14.1827 12.8168 28.1152
H 13.8252 13.6463 27.7985
H 13.807 12.1559 27.5336
O 11.0604 21.3098 15.7988
H 11.5872 20.9189 15.1017
H 10.6992 20.5619 16.2747
O 25.0522 18.2898 29.1427
H 24.1849 17.8855 29.1648
H 24.9368 19.0766 28.6099
O 15.1635 27.1313 6.83327
H 14.3697 27.6631 6.77693
H 14.8508 26.2277 6.78866
O 9.7477 15.6684 15.6312
H 10.4939 15.0699 15.6638
H 9.26947 15.5002 16.4432
O 6.0738 17.3465 4.21687
H 6.28051 16.4695 3.89386
H 6.01976 17.2457 5.16721
O 26.3533 28.9552 7.8885
H 26.6865 29.3517 8.69353
H 25.518 28.5626 8.14222
O 18.6024 1.29847 21.1059
H 19.4319 1.74058 20.9249
H 18.8348 32.7148 21.1785
O 26.3908 2.80811 31.0632
H 25.873 2.37784 31.7437
H 26.5513 2.12285 30.4145
O 9.36771 12.8865 29.9766
H 9.30573 12.9506 30.9297
H 9.65101 13.7565 29.6955
O 20.4467 21.1774 9.48294
H 19.9004 21.9103 9.76671
H 21.3412 21.4528 9.68388
O 26.7126 32.4723 18.2121
H 26.425 31.7126 18.7184
H 26.3662 33.2251 18.6912
O 24.8333 32.6487 27.1123
H 24.276 32.8368 27.8674
H 25.5909 32.1941 27.4805
O 24.8856 32.5826 20.8099
H 24.0341 32.7182 20.3941
H 25.1078 31.6731 20.6105
O 11.3171 19.8575 30.4508
H 10.756 19.5397 29.7433
H 11.5563 19.07 30.9395
O 32.2879 5.84999 21.8607
H 32.268 6.38298 22.6555
H 32.737 6.39695 21.2162
O 29.2662 27.6395 3.2479
H 29.3691 26.6883 3.22
H 28.4765 27.8107 2.73484
O 8.24286 1.16823 24.4711
H 8.82835 33.3164 23.7391
H 7.8099 32.6776 24.6592
O 30.6393 5.38736 3.07216
H 29.9396 4.84056 2.71486
H 30.407 5.50254 3.99359
O 4.81375 7.96248 19.8033
H 5.06797 7.05321 19.6457
H 4.70118 8.01919 20.7522
O 11.6838 2.82656 2.6118
H 11.8326 2.09392 2.01403
H 10.9821 2.5263 3.18942
O 11.1472 27.3575 15.8057
H 12.0279 27.1651 15.4837
H 11.2207 28.2261 16.2011
O 29.4591 27.6081 9.44153
H 29.0228 28.3349 9.88609
H 29.4256 26.8872 10.0704
O 23.278 15.2768 32.8759
H 22.8602 14.6345 32.3022
H 23.3239 14.8433 1.38604
O 20.1853 11.8632 13.0533
H 20.9857 12.3879 13.0726
H 20.3889 11.1364 12.4647
O 5.39055 24.5011 25.9588
H 5.03632 24.4771 26.8477
H 6.07928 23.8363 25.9569
O 11.4446 8.18343 4.33279
H 10.8035 7.81884 4.94293
H 11.6822 7.44883 3.76696
O 29.3129 29.3866 12.9478
H 29.8744 30.0986 12.6411
H 28.5713 29.3881 12.3426
O 5.50289 30.9201 1.32403
H 4.97439 30.6262 2.06604
H 5.88462 30.1175 33.3106
O 5.37004 20.9888 15.3861
H 4.96523 20.3451 15.9674
H 4.67715 21.2241 14.769
O 29.093 21.9235 5.93842
H 28.9386 21.3197 5.21191
H 29.8298 22.4623 5.65028
O 19.7724 8.40075 33.1178
H 18.8217 8.29008 33.1083
H 19.9044 9.3242 33.3324
O 32.5906 12.7245 1.41955
H 33.2054 12.531 33.0539
H 32.8568 12.1454 2.13372
O 29.9943 1.47982 14.4742
H 30.3469 2.15908 13.8994
H 29.0889 1.74663 14.6337
O 14.8028 29.557 29.2775
H 15.2934 29.961 28.5617
H 15.4298 29.5051 29.9989
O 11.3456 30.59 9.64117
H 11.7028 30.4645 10.5204
H 11.9884 30.1825 9.06065
O 26.071 27.383 16.1583
H 26.0533 26.4373 16.0118
H 25.7659 27.492 17.059
O 11.2676 23.1879 7.77352
H 11.3666 22.2939 8.10072
H 10.7475 23.0952 6.97535
O 20.0498 6.54964 3.22193
H 19.992 7.13413 2.46611
H 19.2289 6.05767 3.2082
O 2.59704 28.1352 9.1975
H 2.93348 27.6455 8.44703
H 1.64558 28.1036 9.09772
O 9.74585 8.22776 19.129
H 10.4176 7.66728 19.5174
H 8.93218 7.73442 19.233
O 1.88551 23.3506 16.0763
H 2.83346 23.3394 16.2086
H 1.64526 22.4288 15.9833
O 12.163 3.06767 16.8617
H 11.7548 3.484 16.1026
H 12.3766 2.18324 16.5643
O 28.2179 27.5725 5.96969
H 28.5826 27.6459 5.08777
H 27.7309 28.3867 6.09654
O 13.5456 32.9887 24.5418
H 13.947 1.14314 23.8287
H 14.2706 32.7915 25.1349
O 12.8473 26.5467 18.5016
H 13.0831 26.7421 17.5947
H 13.6207 26.1135 18.8627
O 21.9965 11.1924 28.0772
H 21.1043 11.0355 28.3865
H 22.5223 11.2406 28.8756
O 8.54413 22.9188 15.9567
H 8.66948 23.5882 15.2841
H 9.19615 22.2484 15.7525
O 14.4561 19.448 21.3087
H 14.8906 19.2931 20.4699
H 14.794 20.2944 21.6013
O 17.4589 5.39774 2.8498
H 17.1786 5.64496 3.731
H 17.0721 4.53367 2.70846
O 4.11463 12.5214 23.9177
H 3.30073 12.3388 24.3872
H 4.23286 11.7673 23.3402
O 21.2062 18.7007 1.33738
H 21.079 19.6208 1.10609
H 20.4055 18.4572 1.80192
O 24.7518 18.3252 14.501
H 24.5129 19.2421 14.3649
H 24.1656 17.8362 13.9236
O 8.51547 23.2589 2.99168
H 8.60972 23.1676 3.93984
H 7.83087 23.9187 2.88096
O 9.72532 9.84273 6.3007
H 9.35347 8.96101 6.27793
H 10.483 9.76875 6.88098
O 28.4832 8.88327 17.9525
H 28.5322 9.45662 18.7175
H 27.6238 9.06392 17.5718
O 16.0999 31.3128 13.083
H 16.6536 30.618 13.439
H 16.6136 32.1122 13.1989
O 6.98113 23.2022 21.6985
H 6.09542 23.5588 21.6307
H 7.50435 23.9239 22.0473
O 33.259 18.7805 9.41947
H 32.3495 18.5587 9.61875
H 33.3517 18.5964 8.48473
O 25.5407 15.7112 5.68276
H 25.8878 16.4445 6.19086
H 24.6623 15.5693 6.03544
O 32.9246 22.0047 8.64365
H 32.1234 21.8845 9.1535
H 32.6465 21.9067 7.73299
O 10.3325 29.9141 16.8089
H 10.3476 30.724 17.3188
H 9.42162 29.8236 16.5291
O 30.5542 13.5142 24.3285
H 30.8225 14.1539 23.6689
H 31.3716 13.2428 24.7461
O 32.6068 31.4452 27.1701
H 1.07274 31.6281 26.6906
H 32.3449 32.2921 27.5311
O 30.7242 32.7691 30.2896
H 31.1159 33.1002 29.4814
H 30.783 31.8169 30.2122
O 26.1009 27.2556 21.0038
H 26.1814 28.1397 20.6457
H 26.8813 26.7981 20.6911
O 3.59599 28.1442 29.2764
H 4.52245 28.3407 29.4152
H 3.55114 27.8228 28.3759
O 16.3371 28.3574 13.594
H 16.4983 27.7408 14.3081
H 17.0889 28.2514 13.011
O 23.2036 25.318 28.3885
H 23.7739 25.4905 29.1376
H 23.7346 25.5456 27.6252
O 32.9155 29.9698 10.9979
H 32.5302 29.7606 10.147
H 32.2151 30.4139 11.4758
O 1.06603 5.25724 18.2129
H 1.36994 5.62424 19.0431
H 1.85172 4.88363 17.8138
O 21.7368 31.4909 2.00226
H 22.6758 31.4265 1.82805
H 21.4382 32.2099 1.44541
O 2.14346 3.09278 14.9602
H 1.52773 2.54084 15.4424
H 2.60682 2.48688 14.3819
O 30.9998 27.429 13.8534
H 30.3068 27.9779 13.4864
H 30.5699 26.9342 14.551
O 29.0956 20.5897 19.5279
H 28.2018 20.5454 19.8676
H 29.4381 19.7025 19.637
O 10.4087 30.3547 6.30375
H 11.0786 29.8803 6.79617
H 10.2451 31.1439 6.82009
O 4.07146 13.1239 1.31063
H 3.64756 13.489 2.08729
H 3.36471 13.034 33.0134
O 14.7775 21.4576 25.3562