LAMMPS (22 Aug 2018)
Reading data file ...
  orthogonal box = (0 0 0) to (34.309 34.309 34.309)
  4 by 4 by 8 MPI processor grid
  reading atoms ...
  3216 atoms
  scanning bonds ...
  2 = max bonds/atom
  scanning angles ...
  1 = max angles/atom
  reading bonds ...
  2000 bonds
  reading angles ...
  1000 angles
Finding 1-2 1-3 1-4 neighbors ...
  special bond factors lj:   0          0          0         
  special bond factors coul: 0          0          0         
  2 = max # of 1-2 neighbors
  1 = max # of 1-3 neighbors
  1 = max # of 1-4 neighbors
  2 = max # of special neighbors
Setting atom values ...
  1000 settings made for charge
Setting atom values ...
  2000 settings made for charge
Setting atom values ...
  108 settings made for charge
Setting atom values ...
  108 settings made for charge
1000 atoms in group wat
108 atoms in group Na
108 atoms in group Cl
PPPM initialization ...
  extracting TIP4P info from pair style
  using 12-bit tables for long-range coulomb (../kspace.cpp:321)
  G vector (1/distance) = 0.31012
  grid = 32 32 32
  stencil order = 5
  estimated absolute RMS force accuracy = 0.00343213
  estimated relative force accuracy = 1.03358e-05
  using double precision FFTs
  3d grid and FFT values/proc = 2475 256
Neighbor list info ...
  update every 1 steps, delay 0 steps, check yes
  max neighbors/atom: 2000, page size: 100000
  master list distance cutoff = 12.3092
  ghost atom cutoff = 12.3092
  binsize = 6.1546, bins = 6 6 6
  1 neighbor lists, perpetual/occasional/extra = 1 0 0
  (1) pair lj/cut/tip4p/long, perpetual
      attributes: half, newton on
      pair build: half/bin/newton
      stencil: half/bin/3d/newton
      bin: standard
Setting up cg style minimization ...
  Unit style    : real
  Current step  : 0
Per MPI rank memory allocation (min/avg/max) = 8.192 | 8.263 | 8.456 Mbytes
Step Temp E_pair E_mol TotEng Press 
       0            0   -508.62972 3.5803898e-05   -508.62968    24860.233 
    1000            0   -26835.306    374.37527    -26460.93   -5056.9035 
Loop time of 1.48234 on 128 procs for 1000 steps with 3216 atoms

99.0% CPU use with 128 MPI tasks x no OpenMP threads

Minimization stats:
  Stopping criterion = max iterations
  Energy initial, next-to-last, final = 
        -508.629684005      -26460.785504     -26460.9303589
  Force two-norm initial, final = 2129.06 26.8163
  Force max component initial, final = 241.5 7.50507
  Final line search alpha, max atom move = 0.00651646 0.0489065
  Iterations, force evaluations = 1000 1766

MPI task timing breakdown:
Section |  min time  |  avg time  |  max time  |%varavg| %total
---------------------------------------------------------------
Pair    | 0.12639    | 0.35758    | 0.57596    |  14.9 | 24.12
Bond    | 0.0008776  | 0.0016451  | 0.0023213  |   0.7 |  0.11
Kspace  | 0.63748    | 0.86482    | 1.0892     |   9.7 | 58.34
Neigh   | 0.007394   | 0.007522   | 0.0076425  |   0.1 |  0.51
Comm    | 0.15042    | 0.17061    | 0.19149    |   2.4 | 11.51
Output  | 9.3555e-05 | 9.5677e-05 | 9.8655e-05 |   0.0 |  0.01
Modify  | 0          | 0          | 0          |   0.0 |  0.00
Other   |            | 0.08008    |            |       |  5.40

Nlocal:    25.125 ave 38 max 10 min
Histogram: 4 3 8 16 17 25 29 11 10 5
Nghost:    2498.99 ave 2630 max 2425 min
Histogram: 6 36 35 14 5 0 7 10 12 3
Neighs:    7912.68 ave 12791 max 2554 min
Histogram: 6 4 11 18 19 23 14 19 7 7

Total # of neighbors = 1012823
Ave neighs/atom = 314.933
Ave special neighs/atom = 1.86567
Neighbor list builds = 21
Dangerous builds = 0
Finding SHAKE clusters ...
  0 = # of size 2 clusters
  0 = # of size 3 clusters
  0 = # of size 4 clusters
  1000 = # of frozen angles
PPPM initialization ...
  extracting TIP4P info from pair style
  using 12-bit tables for long-range coulomb (../kspace.cpp:321)
  G vector (1/distance) = 0.31012
  grid = 32 32 32
  stencil order = 5
  estimated absolute RMS force accuracy = 0.00343213
  estimated relative force accuracy = 1.03358e-05
  using double precision FFTs
  3d grid and FFT values/proc = 2475 256
Setting up Verlet run ...
  Unit style    : real
  Current step  : 0
  Time step     : 0.001
Per MPI rank memory allocation (min/avg/max) = 7.942 | 8.1 | 8.207 Mbytes
Step Temp E_pair E_mol TotEng Press Volume 
       0    432.53725   -26835.306            0   -23979.481    827217.86    40385.253 
   10000    180.82214   -25234.281            0   -24040.404    1075.8001    40114.355 
Loop time of 9.56754 on 128 procs for 10000 steps with 3216 atoms

Performance: 0.090 ns/day, 265.765 hours/ns, 1045.201 timesteps/s
99.4% CPU use with 128 MPI tasks x no OpenMP threads

MPI task timing breakdown:
Section |  min time  |  avg time  |  max time  |%varavg| %total
---------------------------------------------------------------
Pair    | 0.65207    | 2.374      | 3.9403     |  47.0 | 24.81
Bond    | 0.00094128 | 0.0011277  | 0.0019827  |   0.5 |  0.01
Kspace  | 3.3739     | 4.9963     | 6.6999     |  32.5 | 52.22
Neigh   | 0          | 0          | 0          |   0.0 |  0.00
Comm    | 0.78888    | 0.9204     | 1.061      |   6.6 |  9.62
Output  | 8.6463e-05 | 8.8138e-05 | 9.1682e-05 |   0.0 |  0.00
Modify  | 1.0999     | 1.1653     | 1.2191     |   2.5 | 12.18
Other   |            | 0.1103     |            |       |  1.15

Nlocal:    25.125 ave 37 max 9 min
Histogram: 2 2 7 13 12 30 30 15 10 7
Nghost:    2499.99 ave 2630 max 2423 min
Histogram: 3 37 33 18 4 1 8 10 11 3
Neighs:    7913.66 ave 12834 max 2240 min
Histogram: 4 5 8 15 24 23 18 16 8 7

Total # of neighbors = 1012948
Ave neighs/atom = 314.971
Ave special neighs/atom = 1.86567
Neighbor list builds = 0
Dangerous builds = 0
PPPM initialization ...
  extracting TIP4P info from pair style
  using 12-bit tables for long-range coulomb (../kspace.cpp:321)
  G vector (1/distance) = 0.310282
  grid = 32 32 32
  stencil order = 5
  estimated absolute RMS force accuracy = 0.00340928
  estimated relative force accuracy = 1.02669e-05
  using double precision FFTs
  3d grid and FFT values/proc = 2475 256
Setting up Verlet run ...
  Unit style    : real
  Current step  : 10000
  Time step     : 0.01
Per MPI rank memory allocation (min/avg/max) = 7.942 | 8.102 | 8.207 Mbytes
Step Temp E_pair E_mol TotEng Press Volume 
   10000    180.82214   -25234.281            0   -24040.404   -130950.48    40114.355 
   20000    302.38135   -23907.721            0    -21911.25   -749.64938    40279.164 
Loop time of 9.2065 on 128 procs for 10000 steps with 3216 atoms

Performance: 0.938 ns/day, 25.574 hours/ns, 1086.189 timesteps/s
99.4% CPU use with 128 MPI tasks x no OpenMP threads

MPI task timing breakdown:
Section |  min time  |  avg time  |  max time  |%varavg| %total
---------------------------------------------------------------
Pair    | 0.76884    | 2.3692     | 3.7619     |  45.6 | 25.73
Bond    | 0.00094295 | 0.0011256  | 0.0019587  |   0.5 |  0.01
Kspace  | 3.2169     | 4.6728     | 6.3144     |  32.6 | 50.76
Neigh   | 0.001229   | 0.0012665  | 0.0013014  |   0.0 |  0.01
Comm    | 0.78124    | 0.91299    | 1.043      |   6.5 |  9.92
Output  | 8.2244e-05 | 8.4708e-05 | 8.8015e-05 |   0.0 |  0.00
Modify  | 1.0773     | 1.1402     | 1.192      |   2.5 | 12.38
Other   |            | 0.1089     |            |       |  1.18

Nlocal:    25.125 ave 36 max 10 min
Histogram: 2 5 7 10 15 26 27 11 17 8
Nghost:    2493.11 ave 2618 max 2417 min
Histogram: 8 24 39 18 6 1 10 8 9 5
Neighs:    7903.45 ave 12861 max 2637 min
Histogram: 7 3 11 18 22 23 14 15 11 4

Total # of neighbors = 1011642
Ave neighs/atom = 314.565
Ave special neighs/atom = 1.86567
Neighbor list builds = 4
Dangerous builds = 0
PPPM initialization ...
  extracting TIP4P info from pair style
  using 12-bit tables for long-range coulomb (../kspace.cpp:321)
  G vector (1/distance) = 0.310183
  grid = 32 32 32
  stencil order = 5
  estimated absolute RMS force accuracy = 0.00342318
  estimated relative force accuracy = 1.03088e-05
  using double precision FFTs
  3d grid and FFT values/proc = 2475 256
Setting up Verlet run ...
  Unit style    : real
  Current step  : 20000
  Time step     : 0.1
Per MPI rank memory allocation (min/avg/max) = 7.942 | 8.106 | 8.207 Mbytes
Step Temp E_pair E_mol TotEng Press Volume 
   20000    302.38135   -23907.721            0    -21911.25   -13180.618    40279.164 
   30000    295.86749   -24138.163            0     -22184.7   -621.27273    35533.179 
Loop time of 9.47763 on 128 procs for 10000 steps with 3216 atoms

Performance: 9.116 ns/day, 2.633 hours/ns, 1055.116 timesteps/s
99.4% CPU use with 128 MPI tasks x no OpenMP threads

MPI task timing breakdown:
Section |  min time  |  avg time  |  max time  |%varavg| %total
---------------------------------------------------------------
Pair    | 1.1957     | 2.6029     | 3.6793     |  33.3 | 27.46
Bond    | 0.0009506  | 0.0011395  | 0.0024762  |   0.6 |  0.01
Kspace  | 3.482      | 4.6041     | 5.9963     |  25.0 | 48.58
Neigh   | 0.015552   | 0.016064   | 0.016477   |   0.2 |  0.17
Comm    | 0.85318    | 0.97429    | 1.1017     |   6.4 | 10.28
Output  | 9.0159e-05 | 9.2765e-05 | 9.6572e-05 |   0.0 |  0.00
Modify  | 1.0863     | 1.1619     | 1.216      |   2.7 | 12.26
Other   |            | 0.1171     |            |       |  1.24

Nlocal:    25.125 ave 37 max 16 min
Histogram: 4 11 18 21 25 27 13 6 2 1
Nghost:    2785.56 ave 2825 max 2761 min
Histogram: 7 21 31 23 11 12 7 2 11 3
Neighs:    8905.74 ave 13167 max 4395 min
Histogram: 1 4 10 18 32 20 22 13 6 2

Total # of neighbors = 1139935
Ave neighs/atom = 354.457
Ave special neighs/atom = 1.86567
Neighbor list builds = 49
Dangerous builds = 0
PPPM initialization ...
  extracting TIP4P info from pair style
  using 12-bit tables for long-range coulomb (../kspace.cpp:321)
  G vector (1/distance) = 0.31317
  grid = 32 32 32
  stencil order = 5
  estimated absolute RMS force accuracy = 0.00302354
  estimated relative force accuracy = 9.10531e-06
  using double precision FFTs
  3d grid and FFT values/proc = 2475 256
Setting up Verlet run ...
  Unit style    : real
  Current step  : 30000
  Time step     : 0.2
Per MPI rank memory allocation (min/avg/max) = 7.945 | 8.159 | 8.21 Mbytes
Step Temp E_pair E_mol TotEng Press Volume 
   30000    295.86749   -24138.157            0   -22184.694    4025.0172    35533.179 
   40000    293.55267   -24428.472            0   -22490.292   -255.95023    34260.327 
Loop time of 9.87364 on 128 procs for 10000 steps with 3216 atoms

Performance: 17.501 ns/day, 1.371 hours/ns, 1012.798 timesteps/s
99.4% CPU use with 128 MPI tasks x no OpenMP threads

MPI task timing breakdown:
Section |  min time  |  avg time  |  max time  |%varavg| %total
---------------------------------------------------------------
Pair    | 1.6992     | 2.8201     | 3.8988     |  24.2 | 28.56
Bond    | 0.00095502 | 0.0011489  | 0.0022315  |   0.6 |  0.01
Kspace  | 3.4877     | 4.5963     | 5.7006     |  18.8 | 46.55
Neigh   | 0.030987   | 0.031515   | 0.032021   |   0.2 |  0.32
Comm    | 0.96074    | 1.0725     | 1.185      |   5.0 | 10.86
Output  | 9.3475e-05 | 9.5857e-05 | 9.8685e-05 |   0.0 |  0.00
Modify  | 1.1445     | 1.228      | 1.2836     |   2.9 | 12.44
Other   |            | 0.124      |            |       |  1.26

Nlocal:    25.125 ave 33 max 16 min
Histogram: 3 3 10 10 31 27 11 20 8 5
Nghost:    2871.2 ave 2893 max 2847 min
Histogram: 6 8 7 23 15 17 19 11 15 7
Neighs:    9217.17 ave 13213 max 5296 min
Histogram: 1 6 10 24 26 27 16 11 2 5

Total # of neighbors = 1179798
Ave neighs/atom = 366.853
Ave special neighs/atom = 1.86567
Neighbor list builds = 96
Dangerous builds = 0
PPPM initialization ...
  extracting TIP4P info from pair style
  using 12-bit tables for long-range coulomb (../kspace.cpp:321)
  G vector (1/distance) = 0.309422
  grid = 30 30 30
  stencil order = 5
  estimated absolute RMS force accuracy = 0.00389178
  estimated relative force accuracy = 1.172e-05
  using double precision FFTs
  3d grid and FFT values/proc = 2475 256
Setting up Verlet run ...
  Unit style    : real
  Current step  : 40000
  Time step     : 0.5
Per MPI rank memory allocation (min/avg/max) = 7.948 | 8.19 | 8.217 Mbytes
Step Temp E_pair E_mol TotEng Press Volume 
   40000    293.55267   -24428.501            0   -22490.321   -850.50021    34260.327 
   50000    303.32222   -24462.041            0   -22459.358    524.87557    33620.435 
Loop time of 9.7487 on 128 procs for 10000 steps with 3216 atoms

Performance: 44.314 ns/day, 0.542 hours/ns, 1025.778 timesteps/s
99.4% CPU use with 128 MPI tasks x no OpenMP threads

MPI task timing breakdown:
Section |  min time  |  avg time  |  max time  |%varavg| %total
---------------------------------------------------------------
Pair    | 2.1335     | 2.8854     | 3.5671     |  19.7 | 29.60
Bond    | 0.00095575 | 0.0011482  | 0.0021723  |   0.6 |  0.01
Kspace  | 3.6371     | 4.3073     | 5.0282     |  15.8 | 44.18
Neigh   | 0.075271   | 0.076962   | 0.078513   |   0.4 |  0.79
Comm    | 0.99522    | 1.111      | 1.2477     |   5.3 | 11.40
Output  | 8.2866e-05 | 8.4501e-05 | 9.6341e-05 |   0.0 |  0.00
Modify  | 0.99756    | 1.2056     | 1.304      |   6.4 | 12.37
Other   |            | 0.1612     |            |       |  1.65

Nlocal:    25.125 ave 32 max 19 min
Histogram: 9 4 18 22 19 12 25 7 7 5
Nghost:    2904.34 ave 2945 max 2873 min
Histogram: 4 14 16 24 19 24 14 7 3 3
Neighs:    9392.27 ave 12232 max 6356 min
Histogram: 4 10 16 15 15 17 19 12 11 9

Total # of neighbors = 1202211
Ave neighs/atom = 373.822
Ave special neighs/atom = 1.86567
Neighbor list builds = 239
Dangerous builds = 0
PPPM initialization ...
  extracting TIP4P info from pair style
  using 12-bit tables for long-range coulomb (../kspace.cpp:321)
  G vector (1/distance) = 0.309876
  grid = 30 30 30
  stencil order = 5
  estimated absolute RMS force accuracy = 0.00381952
  estimated relative force accuracy = 1.15024e-05
  using double precision FFTs
  3d grid and FFT values/proc = 2475 256
Setting up Verlet run ...
  Unit style    : real
  Current step  : 0
  Time step     : 2
Per MPI rank memory allocation (min/avg/max) = 7.959 | 8.208 | 8.217 Mbytes
Step Temp E_pair E_mol TotEng Press Volume 
       0    303.32222   -24462.041            0   -22459.358    959.50695    33620.435 
   10000    296.71917   -24566.581            0   -22607.495    234.37203    33824.859 
   20000    302.52406   -24533.662            0   -22536.248     411.5276    33536.068 
   30000    302.04845   -24519.492            0   -22525.219    157.69337    33498.694 
   40000    296.35373   -24446.068            0   -22489.395    560.38859    33806.138 
   50000     295.9858   -24450.576            0   -22496.332   -591.28336    34437.983 
   60000     302.8483   -24486.235            0   -22486.681   -797.52637    34081.916 
   70000     294.7552   -24519.263            0   -22573.143    149.28329    33736.497 
   80000    291.19686   -24608.756            0   -22686.131   -569.32084    33817.107 
   90000    300.62327    -24492.24            0   -22507.376    610.59482    33698.112 
  100000    294.90811   -24491.204            0   -22544.075    241.05489    33629.635 
  110000    307.80379   -24432.306            0   -22400.033    93.213858    33627.017 
  120000    305.42211   -24536.745            0   -22520.197    43.065066    33827.437 
  130000    293.18986    -24428.79            0   -22493.006    521.40998    33895.073 
  140000    292.85625   -24636.531            0    -22702.95    246.53916    33615.261 
  150000    291.33577   -24515.221            0   -22591.678    98.048123    33880.222 
  160000    291.97057   -24552.943            0   -22625.209   -484.45997    33772.116 
  170000    294.26734    -24533.88            0   -22590.981   -511.98656     33801.24 
  180000    292.69697   -24483.609            0   -22551.079   -660.22483    33949.549 
  190000    289.74682    -24534.99            0   -22621.939    66.787478    33894.893 
  200000    299.21304   -24486.501            0   -22510.949   -82.714459    33875.809 
  210000    293.59685   -24431.066            0   -22492.595    373.77466    33298.668 
  220000    289.68388   -24458.441            0   -22545.805   -72.269703    33808.653 
  230000    294.63712   -24443.401            0   -22498.062    120.26562    34127.028 
  240000    301.15619   -24442.262            0    -22453.88    -325.5516    34044.319 
  250000    302.23724   -24455.674            0   -22460.154    190.64123     33781.77 
  260000    301.85335   -24484.821            0   -22491.836    700.01705    34044.507 
  270000    308.87553    -24567.66            0   -22528.311    469.54956     34017.79 
  280000    303.47529   -24503.739            0   -22500.045    994.59941    33805.369 
  290000    299.56261   -24613.269            0   -22635.408    275.79299    33778.716 
  300000     296.2504   -24472.875            0   -22516.884    223.10567    33564.822 
  310000    293.15549   -24483.833            0   -22548.276   -13.129542    33670.516 
  320000    298.24396    -24520.77            0   -22551.616    438.46557    33774.932 
  330000     292.5352     -24531.6            0   -22600.138     448.6967    33665.703 
  340000     288.7135     -24459.9            0   -22553.671   -734.95094    34123.302 
  350000    300.81954   -24467.024            0   -22480.865    453.84909    34193.198 
  360000    294.34491   -24505.593            0   -22562.182    850.98915    33227.048 
  370000    296.69715   -24554.034            0   -22595.093    331.89071    34105.787 
  380000    312.52365   -24510.239            0   -22446.804    177.03948    33994.428 
  390000    294.99693   -24580.229            0   -22632.513   -256.95111    34207.263 
  400000    295.66453   -24445.313            0    -22493.19    11.064823    33561.731 
  410000    296.31841   -24529.069            0   -22572.629   -258.80429     34399.94 
  420000    295.69304   -24454.679            0   -22502.368    911.90964    33791.355 
  430000    292.04155   -24568.973            0   -22640.771    850.81682    33867.849 
  440000    297.07062   -24582.812            0   -22621.405   -187.46469    33766.085 
  450000    293.72251   -24571.792            0   -22632.491   -14.710685    33707.098 
  460000    301.06506   -24448.876            0   -22461.096   -440.09867    34034.675 
  470000    300.74934     -24479.8            0   -22494.104   -765.27255    34526.318 
  480000    301.76784   -24492.086            0   -22499.666    557.69046    33654.778 
  490000    299.97394   -24469.053            0   -22488.476    549.81418    34144.074 
  500000    296.97616   -24546.277            0   -22585.493    426.37007    33929.298 
  510000    305.16547    -24615.89            0   -22601.036    289.63843     33962.88 
  520000    304.29277   -24549.964            0   -22540.873   -770.22429    34039.693 
  530000    300.38692   -24516.498            0   -22533.195    100.06524    33677.156 
  540000    298.50385    -24470.34            0    -22499.47    -30.22512    34138.507 
  550000    294.04805   -24428.734            0   -22487.284   -159.31644    34098.915 
  560000    296.62516   -24411.532            0   -22453.066    100.89388    34163.516 
  570000    301.54423   -24498.004            0    -22507.06    -148.0932    33998.026 
  580000    294.56602   -24508.082            0   -22563.211    48.695708    33795.311 
  590000    297.50952   -24500.877            0   -22536.572   -375.36564    34163.852 
  600000    299.70612   -24533.072            0   -22554.264    190.87943    33526.644 
  610000    301.20237   -24517.168            0   -22528.481   -483.34616    34382.466 
  620000    287.30051   -24455.948            0   -22559.048    404.42753    33835.638 
  630000    288.20347    -24570.58            0   -22667.718   -9.8557566    34184.327 
  640000    294.57464   -24466.901            0   -22521.974       600.71    34090.104 
  650000    303.21558   -24413.065            0   -22411.086    351.79857    33655.256 
  660000    295.27816   -24545.547            0   -22595.975    52.005186    33806.158 
  670000    292.20283   -24454.358            0    -22525.09   -256.76041    34067.389 
  680000    297.61341    -24544.04            0   -22579.049   -208.41864    34004.128 
  690000    294.09826     -24536.2            0   -22594.418    276.44128    33771.518 
  700000    305.93853   -24421.638            0   -22401.681    202.80734    34014.102 
  710000    290.22624   -24535.026            0   -22618.809   -32.009178    33890.032 
  720000    297.32969   -24599.498            0    -22636.38    463.28452    33242.871 
  730000    297.91065   -24519.189            0   -22552.235    309.08282    33516.495 
  740000    302.45916   -24501.496            0   -22504.511   -734.37049    34181.655 
  750000    286.31493   -24405.612            0   -22515.219   -400.60765    34017.443 
  760000    298.74042   -24557.673            0   -22585.241    709.16987    33530.591 
  770000    296.24757   -24560.118            0   -22604.145    -537.2994    33274.321 
  780000    292.88766   -24546.717            0   -22612.927     141.3702    33630.097 
  790000    293.39418   -24470.007            0   -22532.873    500.50817    34030.345 
  800000    296.81813   -24545.208            0   -22585.468   -754.42679    33845.919 
  810000    300.68089   -24460.437            0   -22475.193    277.06684    34299.088 
  820000    299.91237    -24476.12            0    -22495.95    822.99171     33464.52 
  830000    297.65201   -24458.826            0   -22493.581   -854.67527    34406.702 
  840000    297.78371   -24491.388            0   -22525.273    90.247968    33789.254 
  850000    286.76213   -24474.448            0   -22581.103   -348.78143    33907.329 
  860000    289.77032    -24464.41            0   -22551.203   -34.360493    34231.151 
  870000    294.44685   -24490.238            0   -22546.154   -31.860671    33699.192 
  880000    299.89906   -24536.209            0   -22556.127   -227.65285    33726.633 
  890000    296.66531   -24577.866            0   -22619.135    358.43366      33832.2 
  900000    299.25586   -24515.642            0   -22539.807   -88.749928    33854.353 
  910000     296.0302   -24569.646            0   -22615.109    152.27296    33581.566 
  920000    290.77787   -24480.365            0   -22560.506    -291.1678    33894.537 
  930000    296.89465   -24405.657            0   -22445.412   -158.08327    34186.115 
  940000    294.43995   -24517.066            0   -22573.028   -157.17487    33915.036 
  950000    294.45232   -24468.407            0   -22524.287     572.3507    33549.708 
  960000    288.80165   -24531.485            0   -22624.673    894.26286    33529.891 
  970000    294.70105   -24589.743            0   -22643.981   -178.37004    33610.036 
  980000    299.10101   -24579.923            0    -22605.11     -468.545     33944.55 
  990000    297.49623   -24414.098            0   -22449.881   -264.47613    33876.791 
 1000000    287.76848   -24518.001            0   -22618.012    605.30968    34106.746 
 1010000    294.73509   -24478.217            0    -22532.23   -715.04565    33887.546 
 1020000     292.3111    -24560.73            0   -22630.748    539.86098    33790.337 
 1030000     296.3252   -24504.598            0   -22548.112   -574.76825    34067.564 
 1040000    296.79894    -24423.22            0   -22463.607    34.500276    33937.189 
 1050000    292.33288   -24526.869            0   -22596.743   -72.616548    33880.442 
 1060000    297.54111   -24477.189            0   -22512.676   -191.58091     34006.53 
 1070000    296.42339   -24455.494            0    -22498.36    144.88308    33731.061 
 1080000    297.92406   -24507.917            0   -22540.875   -583.37044    33777.166 
 1090000    302.61326   -24562.466            0   -22564.463   -851.59116    33919.686 
 1100000    301.35095   -24549.583            0   -22559.915    727.60077    33851.297 
 1110000    296.18738   -24428.775            0     -22473.2   -226.51561    33733.595 
 1120000    295.86504   -24576.436            0   -22622.989   -61.195719    33606.828 
 1130000    299.31312   -24624.416            0   -22648.203    272.21649    34000.813 
 1140000    301.12628   -24462.307            0   -22474.122   -46.892901    34032.275 
 1150000    293.94749   -24474.382            0   -22533.596   -783.75642    34021.487 
 1160000    303.64515   -24481.144            0   -22476.329    1261.3382    33611.412 
 1170000    297.28109   -24369.564            0   -22406.768     -1047.03    34241.302 
 1180000    293.64467   -24500.181            0   -22561.394    640.80953    33967.614 
 1190000    296.24037   -24551.383            0   -22595.458    432.56123    33407.678 
 1200000    296.31224   -24547.233            0   -22590.833    278.06051    33884.263 
 1210000     297.3035    -24476.66            0   -22513.716    286.69997    33684.108 
 1220000    302.13355   -24495.654            0   -22500.819   -518.77047     33768.57 
 1230000    293.69931   -24492.769            0   -22553.621    183.10266    33325.898 
 1240000    292.18685   -24541.699            0   -22612.537    572.67309    33434.773 
 1250000    305.91209   -24493.614            0   -22473.831    446.44232    33554.513 
 1260000    298.41212   -24464.813            0   -22494.549    297.73676    33656.219 
 1270000    296.59583   -24477.908            0   -22519.635   -140.73167    34071.924 
 1280000    296.13972   -24510.599            0   -22555.338   -273.40564    33841.619 
 1290000    288.97382   -24436.054            0   -22528.106    357.67781    34070.962 
 1300000    301.56103   -24523.781            0   -22532.726    448.43425      33557.2 
 1310000    297.46642   -24489.756            0   -22525.736    -215.2102    33848.295 
 1320000    300.74865   -24490.894            0   -22505.203    -115.5061    34205.781 
 1330000    305.55421   -24566.434            0   -22549.014    140.96692    33536.596 
 1340000    297.76352   -24575.417            0   -22609.435    990.41172     33499.56 
 1350000    288.32088   -24519.148            0   -22615.511    489.77705    33820.346 
 1360000    303.71555   -24450.415            0   -22445.134    321.32831    33861.172 
 1370000    300.73898   -24564.544            0   -22578.917    27.100843    33600.723 
 1380000    302.51645   -24548.391            0   -22551.028    756.50872    33539.526 
 1390000    296.65314   -24473.275            0   -22514.624   -558.67119    33829.064 
 1400000    306.16171   -24531.303            0   -22509.872    1211.5233    33287.251 
 1410000    311.07309    -24485.76            0   -22431.902   -133.92587    33883.797 
 1420000    286.08165   -24437.534            0   -22548.682    918.15241     33665.33 
 1430000    294.34061   -24494.345            0   -22550.963   -407.00932    34115.605 
 1440000    302.95411   -24520.289            0   -22520.036   -251.65617    34283.275 
 1450000    295.28107   -24431.711            0   -22482.119    -92.93328    34035.045 
 1460000    300.58171   -24494.758            0   -22510.169    770.59647    34112.226 
 1470000    300.69154   -24563.237            0   -22577.923    -744.6483     33756.39 
 1480000    296.49643   -24457.709            0   -22500.094    697.62221    33872.124 
 1490000    297.76579   -24497.951            0   -22531.954    296.63658    33708.863 
 1500000    303.16077   -24491.864            0   -22490.246    739.89384    33695.861 
 1510000    296.65122   -24454.913            0   -22496.275   -416.28903    34472.479 
 1520000    297.16916   -24542.155            0   -22580.097   -178.52539    34013.754 
 1530000    301.79859   -24563.856            0   -22571.233    412.23985    33621.315 
 1540000    292.02214   -24582.903            0   -22654.829   -609.67385    33781.203 
 1550000    298.42359   -24522.758            0   -22552.418   -670.21007     34294.26 
 1560000    305.58264   -24535.894            0   -22518.286   -150.40165    34215.467 
 1570000    298.76441   -24552.574            0   -22579.984     26.98377    33941.812 
 1580000     297.0291   -24419.699            0   -22458.566   -910.31272    34198.095 
 1590000    297.51456    -24579.83            0   -22615.492    316.01988    33783.114 
 1600000    301.04887   -24525.951            0   -22538.277    313.23636    33839.129 
 1610000    298.31688   -24472.064            0   -22502.429   -441.53941    34205.104 
 1620000    298.50736   -24499.545            0   -22528.652    700.48089    33999.897 
 1630000    292.71251   -24554.742            0    -22622.11    -1179.649    33707.073 
 1640000    300.56326    -24555.76            0   -22571.293   -184.57953    33780.825 
 1650000    300.47037   -24600.541            0   -22616.687    423.41276    33784.821 
 1660000    286.36066   -24576.622            0   -22685.927    828.60419     33726.72 
 1670000    293.72971   -24470.454            0   -22531.105   -646.00063    33915.523 
 1680000    302.43006   -24504.913            0   -22508.121   -266.19952    33651.141 
 1690000    302.32463   -24475.713            0   -22479.616   -284.20949    33892.287 
 1700000    306.48803   -24499.519            0   -22475.934   -1209.6286    33899.506 
 1710000    296.36803   -24576.121            0   -22619.353   -700.40824    33916.476 
 1720000     293.6041   -24464.454            0   -22525.934    666.73821    33701.895 
 1730000    300.58061   -24464.846            0   -22480.264   -480.69832    33375.536 
 1740000    303.61537   -24530.917            0   -22526.298    815.32004    33582.668 
 1750000    302.14977   -24490.079            0   -22495.137   -578.94592    34513.213 
 1760000    301.61544    -24422.15            0   -22430.736    298.57675    33631.866 
 1770000    302.45035   -24562.577            0    -22565.65    1296.3784    33396.839 
 1780000    296.85639   -24528.014            0   -22568.021   -154.12652    33689.396 
 1790000    303.19813    -24556.54            0   -22554.676    -423.5244    34178.703 
 1800000    296.72956   -24533.096            0   -22573.941   -144.72795    34091.699 
 1810000    299.02512   -24419.103            0   -22444.792    330.44647    33731.249 
 1820000    298.72021   -24421.958            0   -22449.659   -626.56401    33920.344 
 1830000    290.44387   -24437.655            0   -22520.001    180.06326     33605.27 
 1840000    296.21665    -24615.63            0   -22659.862   -23.810171    33684.408 
 1850000    298.89402   -24629.853            0   -22656.407   -580.19278    34199.264 
 1860000    298.52284    -24500.85            0   -22529.855   -161.53668    33857.427 
 1870000    290.41224   -24428.091            0   -22510.646   -494.56399    34424.103 
 1880000     301.6775   -24571.942            0   -22580.118     501.6913    33679.863 
 1890000    299.25705   -24475.239            0   -22499.396    787.40502    33628.744 
 1900000     300.9826   -24521.379            0   -22534.143    602.00241    33543.509 
 1910000    303.55059   -24405.538            0   -22401.347   -1265.1447    34201.902 
 1920000    304.46912   -24521.306            0   -22511.051   -247.74201    33502.963 
 1930000    296.25005   -24383.752            0   -22427.763   -370.62014    34047.954 
 1940000    296.54369   -24445.224            0   -22487.296    115.18327     33758.32 
 1950000    303.43126    -24485.42            0   -22482.016    745.06817    33850.409 
 1960000    295.58571   -24604.812            0   -22653.209    621.13123    33620.115 
 1970000    291.43941   -24586.531            0   -22662.304     1100.479    33577.258 
 1980000    298.43509   -24450.629            0   -22480.213   -116.59664    33572.693 
 1990000    291.75111   -24480.491            0   -22554.205    679.24539    33705.558 
 2000000    303.63731   -24527.328            0   -22522.564   -3.9324193    34149.513 
 2010000    304.61152   -24439.676            0    -22428.48   -572.09986     33856.14 
 2020000    304.98887   -24615.288            0   -22601.601    169.49296    33196.789 
 2030000    304.01164   -24564.191            0   -22556.956    38.749585    33793.768 
 2040000    294.93448   -24583.319            0   -22636.016    -299.4281    33493.251 
 2050000     287.0234   -24444.857            0   -22549.787   -902.79252    34315.057 
 2060000    290.86671   -24479.364            0   -22558.919   -48.185074    33596.755 
 2070000    289.57364    -24427.09            0   -22515.182   -640.71387    33799.153 
 2080000    298.28538   -24441.713            0   -22472.285    35.973855    33839.178 
 2090000    301.96923   -24606.023            0   -22612.273    545.16888    33699.033 
 2100000    303.89157   -24553.304            0   -22546.862    335.96266    33690.837 
 2110000    297.36041   -24504.979            0   -22541.659   -156.12417    33894.837 
 2120000     295.0183   -24545.185            0   -22597.329   -161.22823    33603.586 
 2130000    302.14723   -24460.803            0   -22465.878   -322.70961     33646.36 
 2140000    300.06946   -24595.467            0    -22614.26   -165.48386     33808.38 
 2150000    292.73513   -24405.992            0    -22473.21    760.20989     33627.93 
 2160000    306.85575   -24466.645            0   -22440.632   -995.52824    33955.941 
 2170000    292.15484   -24571.428            0   -22642.477   -169.26197    33757.891 
 2180000    297.17055   -24515.328            0   -22553.261    934.21695    33742.988 
 2190000     297.1955   -24533.132            0   -22570.901     130.5236    33729.426 
 2200000    303.06997   -24578.782            0   -22577.765   -460.00082    33977.744 
 2210000    289.42734   -24467.606            0   -22556.663    750.11224    33651.927 
 2220000    293.46763   -24540.906            0   -22603.288    21.816926    33688.092 
 2230000    292.43818   -24553.234            0   -22622.413    430.41226    33277.955 
 2240000    300.19258   -24409.606            0   -22427.586   -51.483669    33922.473 
 2250000    295.76719   -24504.579            0   -22551.778    845.87478    33718.298 
 2260000    304.60205   -24656.794            0   -22645.661    -77.57067    33733.498 
 2270000    290.11318   -24494.586            0   -22579.116   -102.09841    33909.672 
 2280000    306.80838   -24568.023            0   -22542.323    639.44361    33655.106 
 2290000     296.3817    -24470.02            0   -22513.162   -427.89399     34097.56 
 2300000    289.45303   -24553.952            0    -22642.84   -208.69476    33710.185 
 2310000    299.96016   -24532.552            0   -22552.067   -131.75075    33970.446 
 2320000    292.94868   -24495.598            0   -22561.406   -276.96589    33975.859 
 2330000    293.54339   -24497.302            0   -22559.184    194.43212    33540.297 
 2340000    299.57084   -24534.639            0   -22556.725    257.72068    33770.196 
 2350000    298.06079   -24579.578            0   -22611.634   -357.57185    33986.629 
 2360000    299.28262   -24554.685            0   -22578.673   -455.86636    33974.969 
 2370000    290.31311   -24504.373            0   -22587.582   -1306.2983    34430.411 
 2380000      289.648   -24505.192            0   -22592.792    665.15071    33293.876 
 2390000    294.17786   -24549.184            0   -22606.877   -443.29309    34161.609 
 2400000    299.78922   -24525.836            0   -22546.479    624.36297    33722.316 
 2410000    295.98495   -24444.813            0   -22490.574    416.87022     33957.64 
 2420000    303.07446   -24456.621            0   -22455.574   -736.14434    34008.722 
 2430000    291.89205   -24418.065            0    -22490.85   -961.40356    34290.164 
 2440000      305.537   -24484.181            0   -22466.874    331.35481    33800.394 
 2450000    302.04982   -24562.177            0   -22567.895    565.64606    33868.833 
 2460000    295.19197   -24537.086            0   -22588.083    248.80589    33836.251 
 2470000    301.79103   -24472.345            0   -22479.771   -204.45052    34165.666 
 2480000    295.50486   -24562.811            0   -22611.742    728.81266    33490.509 
 2490000    294.94161   -24520.678            0   -22573.328   -221.77009    33703.111 
 2500000    299.63647   -24451.508            0    -22473.16   -162.00272    33837.232 
 2510000     293.2644   -24560.328            0   -22624.052   -770.15577    34014.767 
 2520000    297.93035   -24522.495            0   -22555.412   -472.38954     33889.53 
 2530000    302.78098   -24585.696            0   -22586.586   -221.84061    33782.335 
 2540000    296.48792   -24448.364            0   -22490.804    490.77208    34011.516 
 2550000    290.42802   -24473.444            0   -22555.895   -159.56867    33817.032 
 2560000    301.78432   -24491.323            0   -22498.794    108.06536    34021.874 
 2570000     291.8637   -24430.933            0   -22503.905    270.67028    34058.553 
 2580000    293.31369   -24505.372            0    -22568.77    15.592794     33818.64 
 2590000    307.85293   -24472.044            0   -22439.447   -124.03478    33819.583 
 2600000    285.84167   -24564.089            0   -22676.821   -134.81235    34030.957 
 2610000    301.06898   -24528.389            0   -22540.583    71.098455    33458.325 
 2620000    294.38268   -24597.707            0   -22654.047    218.71255    33603.106 
 2630000    298.56091   -24417.481            0   -22446.234    352.48226    33696.248 
 2640000    300.57633   -24554.228            0   -22569.675    530.26351    33942.892 
 2650000     296.0774   -24579.376            0   -22624.527    572.62608    33648.898 
 2660000    289.06254   -24535.936            0   -22627.402    662.75741    33795.166 
 2670000    292.71084   -24555.243            0   -22622.621   -318.08547     34185.36 
 2680000    302.12589   -24533.521            0   -22538.736   -511.27865    33721.411 
 2690000    287.28164   -24606.328            0   -22709.553   -518.35644    33967.614 
 2700000    306.98216   -24506.665            0   -22479.817   -165.20728    33915.371 
 2710000    298.66263   -24555.319            0     -22583.4    532.77972    33604.908 
 2720000    297.18899   -24600.647            0   -22638.459   -159.39517    33807.269 
 2730000    295.04129   -24494.205            0   -22546.197    -278.6203    33823.517 
 2740000    301.35069   -24540.717            0   -22551.051    712.34385    33733.876 
 2750000    293.07539   -24613.223            0   -22678.195    67.046704    33758.025 
 2760000     289.7765   -24463.009            0   -22549.762   -192.92637    33621.518 
 2770000    291.21343   -24575.012            0   -22652.277    662.91886    33931.991 
 2780000    297.60858   -24460.289            0    -22495.33    63.501327    33528.338 
 2790000     300.1054    -24621.07            0   -22639.626    43.670697    33506.104 
 2800000     296.5596   -24458.726            0   -22500.693   -99.721647    33650.348 
 2810000    291.27538   -24483.852            0   -22560.708    160.45172    33543.864 
 2820000    291.15431   -24557.911            0   -22635.567    472.80726    33600.338 
 2830000    300.11065    -24535.39            0   -22553.911    49.449663    33583.268 
 2840000    305.23843   -24463.567            0   -22448.232   -194.13673    34084.501 
 2850000    299.65445   -24531.037            0   -22552.571   -325.21591    33870.647 
 2860000    295.27045   -24577.356            0   -22627.834   -411.29631    34075.986 
 2870000    293.66214   -24574.761            0   -22635.858    388.25111    33630.851 
 2880000    303.95064   -24544.857            0   -22538.025    -115.6682    33711.645 
 2890000    289.56611   -24577.343            0   -22665.485     94.44737    33683.531 
 2900000    297.82689   -24519.963            0   -22553.563   -105.03183    33795.807 
 2910000    302.53392   -24492.031            0   -22494.553   -440.42895     33919.83 
 2920000    293.21978   -24450.265            0   -22514.283    365.76524    33823.257 
 2930000    296.25947   -24537.335            0   -22581.283   -1100.9464    34204.102 
 2940000    304.31154    -24439.76            0   -22430.545   -780.81796    34134.055 
 2950000    291.98291   -24486.443            0   -22558.628    144.57744    33689.637 
 2960000    302.62428   -24445.331            0   -22447.256   -84.902018    33927.537 
 2970000    292.64702   -24468.601            0   -22536.401    848.02946    33474.475 
 2980000    299.27865   -24440.671            0   -22464.686    947.21315    33629.362 
 2990000    294.62604   -24416.977            0   -22471.711   -463.95435    34198.501 
 3000000    302.14966    -24512.87            0   -22517.929    119.13244    34007.801 
 3010000    294.67697   -24597.019            0   -22651.416   -63.272986    33927.869 
 3020000     295.6307   -24587.805            0   -22635.905   -22.903874    33587.259 
 3030000     299.6919   -24511.493            0   -22532.779   -239.56595    33987.961 
 3040000    292.49223   -24471.996            0   -22540.818    495.45788    33997.621 
 3050000    300.95295   -24451.116            0   -22464.076    489.80015    33804.538 
 3060000    289.57528   -24467.389            0    -22555.47   -1056.0004     34094.31 
 3070000    296.35691   -24353.963            0   -22397.268   -696.57926    34278.465 
 3080000     297.1153   -24594.711            0   -22633.009   -891.76122    34110.517 
 3090000    290.27803   -24555.288            0   -22638.729         -708    33564.808 
 3100000    298.81018   -24540.822            0   -22567.929   -626.67058    34442.306 
 3110000    290.83063   -24432.163            0   -22511.956   -303.18082    33687.618 
 3120000    297.29369   -24620.098            0   -22657.218   -22.374893    33686.019 
 3130000    300.03918   -24501.897            0    -22520.89    593.08797    34041.279 
 3140000    301.94721    -24535.88            0   -22542.275   -464.99233    33919.358 
 3150000    295.91996   -24440.557            0   -22486.747    483.55641    34066.982 
 3160000    298.25841   -24466.097            0   -22496.848    -560.7981    34099.041 
 3170000    301.19114   -24395.687            0   -22407.075   -61.973154    34276.404 
 3180000      293.283   -24551.726            0   -22615.327    45.563827    33726.926 
 3190000    307.62061   -24431.077            0   -22400.014   -22.196898    33973.109 
 3200000    294.95714   -24526.647            0   -22579.194   -772.64183    34253.586 
 3210000    300.41345   -24520.575            0   -22537.097     862.4292    33595.286 
 3220000    289.68173   -24506.308            0   -22593.686    464.20697    33727.363 
 3230000     290.8625   -24533.965            0   -22613.547   -419.81657    33751.043 
 3240000    293.69237   -24431.038            0   -22491.936    109.25092    34068.425 
 3250000    288.98095     -24555.8            0   -22647.805    82.896852    33755.648 
 3260000    290.62776   -24563.542            0   -22644.674    308.19774    33908.636 
 3270000    307.88864   -24430.251            0   -22397.418   -34.841511    34159.357 
 3280000     296.7642   -24409.283            0   -22449.899      903.671    33595.974 
 3290000    303.93124   -24490.204            0     -22483.5   -686.79696    34048.859 
 3300000    301.93539   -24387.467            0    -22393.94    842.06905    34098.376 
 3310000    295.05874   -24521.489            0   -22573.366   -130.08441    34032.996 
 3320000    293.95757   -24554.796            0   -22613.943   -196.99043    33693.275 
 3330000    303.95532   -24476.548            0   -22469.684    -429.4874    33911.313 
 3340000    300.35794   -24415.318            0   -22432.207   -526.77158     33733.44 
 3350000    295.76512   -24447.937            0    -22495.15   -330.44847     33758.14 
 3360000    300.78712   -24510.763            0   -22524.818    297.91474    33557.074 
 3370000    304.46237   -24458.148            0   -22447.937    490.53102    33490.219 
 3380000    298.85361   -24440.838            0   -22467.658   -251.74642    33860.633 
 3390000    295.31352   -24474.854            0   -22525.049   -925.43927    34210.838 
 3400000    296.99342    -24498.69            0   -22537.793    1587.9046    33526.764 
 3410000    295.62091   -24617.357            0   -22665.522    -100.6713    34036.528 
 3420000    294.83228   -24570.161            0   -22623.532    -398.7483    33841.749 
 3430000    303.62422   -24484.241            0   -22479.564    832.53943    33779.919 
 3440000    301.18924   -24535.591            0   -22546.991     69.88055    33952.643 
 3450000    296.33719   -24541.136            0   -22584.572   -545.80358    33720.254 
 3460000    287.29586   -24460.056            0   -22563.187    220.53617    33712.461 
 3470000    297.36025   -24570.793            0   -22607.474   -1010.8628    34345.118 
 3480000    296.46281   -24582.695            0   -22625.301   -117.13184    34047.775 
 3490000     298.0801   -24578.226            0   -22610.154    237.71706      33471.6 
 3500000    296.84216   -24429.321            0   -22469.422   0.60042385    33899.695 
 3510000    289.60568   -24410.449            0    -22498.33   -621.45633    34021.623 
 3520000     297.4997   -24496.779            0   -22532.539   -306.46803    34182.091 
 3530000    299.74676   -24445.353            0   -22466.277     10.24151    33825.334 
 3540000    304.50386   -24533.554            0   -22523.069    172.69627    34059.062 
 3550000    301.72333    -24517.69            0   -22525.564   -421.54912    33965.138 
 3560000    296.85583   -24469.222            0   -22509.233    326.51608    33901.078 
 3570000    302.46107   -24481.317            0   -22484.319    72.107053    33990.009 
 3580000    291.61845   -24580.497            0   -22655.088    155.37837    33710.422 
 3590000    306.14425   -24458.912            0   -22437.597   -389.85034    33763.822 
 3600000    288.41355   -24384.339            0    -22480.09    312.64425    34149.546 
 3610000    311.77118   -24522.892            0   -22464.424    386.39891    33699.377 
 3620000    287.73509   -24435.225            0   -22535.456   -668.85888    34284.792 
 3630000    292.64791    -24532.21            0   -22600.004     177.4541    33927.913 
 3640000    309.24017   -24441.953            0   -22400.197    77.383497    34247.771 
 3650000    295.04383   -24375.214            0   -22427.189   -560.76731    34081.533 
 3660000    292.68203    -24536.52            0   -22604.089    -205.1595    33880.724 
 3670000    302.19065   -24524.202            0    -22528.99   -160.32731    33652.052 
 3680000    296.64787    -24506.77            0   -22548.154    549.03983    33628.838 
 3690000    295.64897   -24516.428            0   -22564.407   -406.17446    33689.248 
 3700000    297.23818   -24456.577            0   -22494.063    383.94246    33951.398 
 3710000    305.80017   -24583.372            0   -22564.329   -103.50112     34011.17 
 3720000    299.27628   -24489.472            0   -22513.502   -124.15851    33808.446 
 3730000    295.05001   -24579.282            0   -22631.216   -622.46929    34262.931 
 3740000    302.40994   -24543.831            0   -22547.171    286.09728    33541.819 
 3750000    303.84365   -24390.632            0   -22384.506    910.72012    33710.935 
 3760000    293.76215   -24520.327            0   -22580.764    329.73236    33456.776 
 3770000    302.38893   -24445.101            0    -22448.58    578.93018    33848.071 
 3780000     305.2656    -24471.23            0   -22455.716   -159.17575    33856.389 
 3790000    297.72545   -24470.409            0   -22504.678   -323.95572    34148.253 
 3800000    298.39733   -24510.106            0    -22539.94   -524.43095    33605.719 
 3810000    290.57276   -24503.323            0   -22584.818   -1298.1394    34433.099 
 3820000    289.91653   -24531.517            0   -22617.344   -232.11611    33727.835 
 3830000    294.90958   -24411.445            0   -22464.307    647.88407    33628.047 
 3840000    301.59378   -24480.986            0   -22489.714    237.15915     33622.28 
 3850000    289.39025   -24526.773            0   -22616.076    503.73396     33614.59 
 3860000    299.14994   -24550.523            0   -22575.387    864.57507    33640.043 
 3870000    299.97658   -24546.905            0   -22566.311     188.2968    33513.025 
 3880000    303.71818   -24592.813            0   -22587.515    413.74715    33838.217 
 3890000    302.32918   -24406.905            0   -22410.778    -345.8986     34083.34 
 3900000     294.6921   -24484.949            0   -22539.246    -633.2072    34359.856 
 3910000    290.41459   -24486.111            0    -22568.65   -686.05866    33906.385 
 3920000    297.74218   -24487.366            0   -22521.525    234.96777    33480.277 
 3930000    300.00212   -24540.796            0   -22560.033   -527.14408    33544.058 
 3940000    304.79138   -24455.431            0   -22443.048   -573.17599    34267.646 
 3950000    298.68446   -24498.495            0   -22526.433     821.0947    33579.596 
 3960000    294.22633   -24388.384            0   -22445.756   -463.59753    34105.248 
 3970000     297.8229   -24469.118            0   -22502.744   -156.47871    34123.213 
 3980000    299.93894   -24514.649            0   -22534.304   -653.26268    33735.987 
 3990000    296.62155    -24482.85            0   -22524.408    464.38297    33648.196 
 4000000    297.24625   -24495.547            0    -22532.98     126.8628    34095.905 
 4010000    300.38152   -24473.393            0   -22490.126   -247.35317    34202.635 
 4020000    288.75905    -24385.24            0    -22478.71    236.98666     34014.77 
 4030000    300.04176   -24579.569            0   -22598.545    461.35913     33498.43 
 4040000    299.81565   -24497.598            0   -22518.067    -505.7623    33837.908 
 4050000    292.05556   -24518.839            0   -22590.544   -325.47984    34212.458 
 4060000    302.92982   -24506.197            0   -22506.104   -70.038952    33807.716 
 4070000    297.50843   -24485.814            0   -22521.516   -392.38543      33732.5 
 4080000    298.05958   -24519.179            0   -22551.243    349.22699    34040.666 
 4090000    298.70046   -24621.063            0   -22648.895    232.67877    33497.646 
 4100000    289.21998   -24529.004            0   -22619.431    997.82033    33421.693 
 4110000    300.49455   -24492.133            0    -22508.12   -346.64955    33602.972 
 4120000    296.46806   -24566.125            0   -22608.696    752.68655    33716.657 
 4130000    308.23616   -24528.134            0   -22493.006   -372.05046    33827.714 
 4140000    298.76385   -24468.417            0   -22495.831   -333.29383    33877.757 
 4150000    303.19102   -24568.504            0   -22566.687    444.19113     33601.27 
 4160000    294.40254     -24513.3            0   -22569.508   -51.084707    34323.746 
 4170000    291.62193   -24515.928            0   -22590.496   -195.81136    33905.907 
 4180000    304.99547     -24490.4            0    -22476.67   -366.44921    33967.175 
 4190000     293.6605   -24552.909            0   -22614.017   -364.73846    33895.938 
 4200000    294.98053   -24495.877            0    -22548.27    -624.8362    34201.562 
 4210000    303.91517    -24545.63            0   -22539.032    -496.1229     33632.73 
 4220000    300.11786   -24513.767            0    -22532.24    148.86187    33591.146 
 4230000    292.50228   -24502.797            0   -22571.552     35.56107    33866.247 
 4240000    298.87246   -24574.381            0   -22601.077     571.5527    33468.681 
 4250000     297.2916    -24517.57            0   -22554.704    974.47487    33880.985 
 4260000    296.80448   -24488.953            0   -22529.304    500.67664    34181.812 
 4270000    300.63006    -24544.29            0   -22559.382   -119.18422    33740.377 
 4280000     300.1686    -24461.43            0   -22479.569    397.04214    33947.228 
 4290000    302.84723   -24481.578            0   -22482.031   -11.771137    33697.885 
 4300000    301.40111   -24484.276            0   -22494.277   -108.78014    34095.773 
 4310000    303.01845   -24469.105            0   -22468.428   -227.23063    34325.974 
 4320000    309.22134   -24614.663            0   -22573.031   -96.052441    33400.041 
 4330000    294.04741   -24564.569            0   -22623.123    201.20963    33527.104 
 4340000    290.28715   -24442.508            0   -22525.889    272.33694    33874.409 
 4350000    298.31654   -24526.504            0   -22556.871    508.68046    33198.393 
 4360000     300.4846   -24483.497            0    -22499.55    -748.6125     34289.96 
 4370000    291.20282   -24471.729            0   -22549.064   -442.48749    33962.541 
 4380000    296.13655   -24495.749            0   -22540.509   -42.056659    33704.106 
 4390000    306.38679   -24563.928            0   -22541.011    -39.39753    34060.038 
 4400000    296.64893   -24589.301            0   -22630.678    220.94506    33850.125 
 4410000    299.93189   -24455.272            0   -22474.973   -144.87389    33670.392 
 4420000     288.2427   -24487.609            0   -22584.488   -129.70046    34069.242 
 4430000    301.99596   -24490.697            0   -22496.771   -241.47655    33508.152 
 4440000    300.00178   -24552.594            0   -22571.834    205.82466    33932.035 
 4450000    294.78228   -24461.756            0   -22515.457    166.35073    33853.809 
 4460000    292.70547   -24479.371            0   -22546.785   -181.09272     33724.53 
 4470000    300.69609   -24583.478            0   -22598.134   -19.663247    33555.681 
 4480000    298.41681    -24533.61            0   -22563.315   -224.66729    33918.648 
 4490000    298.28761   -24480.088            0   -22510.646    571.19654    33645.744 
 4500000    290.86599   -24507.798            0   -22587.357   -209.35563    33584.584 
 4510000    296.14599   -24450.717            0   -22495.414    384.90776    33633.807 
 4520000    299.50714   -24480.564            0    -22503.07    498.34777    33681.216 
 4530000    292.38963   -24343.983            0   -22413.482    82.157394    33766.727 
 4540000    297.17824    -24583.42            0   -22621.302   -578.27422    34137.068 
 4550000     291.7648   -24555.091            0   -22628.716    17.583792    33653.884 
 4560000    297.02961   -24493.907            0   -22532.771   -302.30835    34078.598 
 4570000    289.95467   -24535.107            0   -22620.683    66.763154    33698.715 
 4580000    298.67032   -24497.775            0   -22525.806    1424.8106     33456.51 
 4590000    296.94868   -24551.876            0   -22591.274   -148.35741    33805.428 
 4600000    291.98145   -24494.236            0    -22566.43    764.80562    33445.531 
 4610000    296.26868   -24509.901            0   -22553.788   -106.82867    33702.123 
 4620000    299.80858   -24542.932            0   -22563.447   -844.49145    33762.953 
 4630000    298.77677   -24448.724            0   -22476.052    737.13869    33832.498 
 4640000    292.41988   -24502.378            0   -22571.677   -437.09602    34244.792 
 4650000     298.4872   -24407.303            0   -22436.543   -992.75179    34366.711 
 4660000    292.10738   -24508.713            0   -22580.075   -608.21875    34221.683 
 4670000    308.27632   -24522.731            0   -22487.339    99.743996     33642.55 
 4680000    308.40649   -24447.671            0   -22411.419    820.91116    33578.851 
 4690000    301.74916   -24435.848            0    -22443.55   -232.47932     33521.77 
 4700000    297.07914   -24540.034            0    -22578.57    937.54964    33115.353 
 4710000    297.82512   -24544.655            0   -22578.266     838.7642    33423.916 
 4720000    295.12434   -24449.646            0   -22501.089   -334.38466    34246.755 
 4730000    295.95147   -24535.118            0     -22581.1   -236.21164    33791.025 
 4740000    298.07244   -24481.518            0   -22513.496    701.08614    33710.745 
 4750000    295.85087   -24516.636            0   -22563.283    311.66484    33569.154 
 4760000    304.50155    -24557.35            0    -22546.88    218.46541    33777.365 
 4770000    302.09995   -24463.317            0   -22468.704    174.86422    33163.113 
 4780000    295.32452   -24583.969            0    -22634.09    488.58578    33546.736 
 4790000    293.81449   -24507.869            0   -22567.961   -415.63907    33841.183 
 4800000    289.08301   -24617.915            0   -22709.246    398.03111    33824.971 
 4810000    291.48628   -24545.003            0   -22620.467   -891.41995    34293.977 
 4820000    294.02132   -24502.094            0    -22560.82   -98.870061    33851.933 
 4830000    295.86201   -24405.612            0   -22452.185    326.50207    33899.721 
 4840000     291.2293   -24502.944            0   -22580.104   -518.30598    34045.802 
 4850000     295.9099   -24460.498            0   -22506.755    227.36708    34048.189 
 4860000    305.72494   -24444.636            0   -22426.089    342.35341    33619.676 
 4870000    303.82859   -24409.614            0   -22403.588    111.12959    34040.407 
 4880000     299.2341   -24420.227            0   -22444.535    92.682462    33962.825 
 4890000     294.7246   -24603.582            0   -22657.664    -195.0331    33850.054 
 4900000    300.73541   -24504.898            0   -22519.294    506.15068    33670.808 
 4910000    304.86143   -24504.772            0   -22491.926     348.7148    33925.726 
 4920000    298.67778   -24498.654            0   -22526.635      165.259    34103.372 
 4930000    300.15234   -24497.702            0   -22515.948   -111.73131    33493.313 
 4940000    294.50257   -24540.336            0   -22595.885    685.53023    33289.581 
 4950000    299.41113   -24459.122            0   -22482.262    431.23011    33758.408 
 4960000    292.43526   -24569.051            0   -22638.249    284.82657     33377.94 
 4970000    292.14534    -24468.23            0   -22539.342    32.010402    33881.311 
 4980000     298.1606    -24449.46            0   -22480.856     190.5433    34031.887 
 4990000    300.25658   -24539.898            0   -22557.455   -293.46933    33580.248 
 5000000    284.85059   -24506.165            0    -22625.44   -33.148084    33912.796 
Loop time of 5339.47 on 128 procs for 5000000 steps with 3216 atoms

Performance: 161.814 ns/day, 0.148 hours/ns, 936.422 timesteps/s
99.3% CPU use with 128 MPI tasks x no OpenMP threads

MPI task timing breakdown:
Section |  min time  |  avg time  |  max time  |%varavg| %total
---------------------------------------------------------------
Pair    | 1218.3     | 1469.8     | 1693.3     | 304.7 | 27.53
Bond    | 0.49159    | 0.58349    | 0.91965    |  10.6 |  0.01
Kspace  | 2157       | 2364.8     | 2596.4     | 233.5 | 44.29
Neigh   | 148.82     | 153.19     | 157.4      |  27.2 |  2.87
Comm    | 549.77     | 618.54     | 696.3      | 136.0 | 11.58
Output  | 0.047621   | 0.048096   | 0.04898    |   0.2 |  0.00
Modify  | 539.95     | 647.31     | 697.99     | 142.0 | 12.12
Other   |            | 85.25      |            |       |  1.60

Nlocal:    25.125 ave 34 max 18 min
Histogram: 5 13 11 30 14 21 23 3 6 2
Nghost:    2884.42 ave 2915 max 2852 min
Histogram: 3 6 10 23 16 24 20 12 9 5
Neighs:    9302.73 ave 13446 max 5748 min
Histogram: 1 7 15 30 24 20 14 15 1 1

Total # of neighbors = 1190749
Ave neighs/atom = 370.258
Ave special neighs/atom = 1.86567
Neighbor list builds = 435454
Dangerous builds = 0
PPPM initialization ...
  extracting TIP4P info from pair style
  using 12-bit tables for long-range coulomb (../kspace.cpp:321)
  G vector (1/distance) = 0.309668
  grid = 30 30 30
  stencil order = 5
  estimated absolute RMS force accuracy = 0.00385253
  estimated relative force accuracy = 1.16018e-05
  using double precision FFTs
  3d grid and FFT values/proc = 2475 256
Setting up Verlet run ...
  Unit style    : real
  Current step  : 0
  Time step     : 2
Per MPI rank memory allocation (min/avg/max) = 8.201 | 8.212 | 8.218 Mbytes
Density 
   1.1911736 
   1.1924873 
   1.2038329 
   1.2052756 
   1.1902886 
   1.1978805 
   1.1868449 
   1.1968241 
   1.1992889 
   1.1878023 
   1.1928512 
    1.201465 
   1.1867212 
   1.1955441 
   1.1744312 
   1.1867756 
   1.1866993 
   1.1967469 
   1.2048959 
   1.1997785 
   1.1832908 
   1.1817533 
   1.1943809 
   1.2050803 
   1.1828524 
   1.1974678 
   1.1906433 
   1.1995827 
   1.1949288 
   1.1861507 
   1.2060292 
    1.199875 
   1.1886476 
   1.1922112 
   1.2010513 
   1.1904344 
   1.2147015 
    1.197329 
   1.2040359 
   1.1843191 
   1.2011665 
   1.1971843 
   1.1968987 
   1.1939591 
   1.1916717 
   1.1994532 
   1.1928778 
   1.2047658 
   1.1970305 
   1.1935984 
   1.1807014 
   1.1900061 
   1.1948554 
   1.1980749 
   1.1981421 
   1.1951186 
   1.2023669 
   1.1977923 
   1.1884374 
   1.1974671 
   1.1923449 
    1.210941 
   1.2063513 
   1.1929613 
   1.2091622 
   1.1927216 
   1.1823345 
   1.1913828 
   1.1995456 
   1.1839781 
   1.1953621 
   1.2054497 
   1.1889189 
   1.1854603 
   1.1885845 
    1.187884 
   1.1714394 
   1.1907031 
   1.1845302 
   1.1919706 
   1.1761139 
   1.1895952 
   1.2093961 
   1.1917675 
   1.1849452 
   1.1994689 
    1.179179 
   1.2072176 
   1.1960163 
   1.1945973 
   1.1962933 
   1.1897574 
    1.188815 
   1.2020543 
   1.1946816 
   1.2011458 
   1.1827483 
   1.1847642 
    1.190066 
   1.1955822 
   1.1880006 
   1.2061932 
   1.2029932 
   1.1806115 
   1.1985748 
   1.1889451 
   1.1845871 
   1.1903982 
   1.1796549 
   1.1998569 
   1.1940909 
   1.1939599 
   1.2001957 
   1.1912851 
   1.1870908 
   1.1994371 
   1.1972122 
   1.2012927 
   1.1965352 
   1.1885139 
   1.1908302 
   1.1842111 
   1.2097492 
   1.1902931 
   1.2011637 
   1.1931744 
   1.1850721 
   1.2059125 
    1.179736 
   1.1726377 
   1.1996937 
   1.1960175 
   1.1896224 
   1.1902442 
   1.2017236 
   1.1944099 
   1.1917084 
   1.2092113 
   1.2193809 
   1.1948531 
   1.1985159 
   1.1844624 
   1.2092406 
    1.198309 
    1.180833 
    1.193625 
   1.2102521 
   1.1919635 
   1.1953057 
   1.2004615 
   1.1879737 
     1.17609 
   1.1965474 
   1.1862925 
   1.1940757 
   1.2000761 
   1.1972587 
   1.1947669 
   1.1875256 
   1.2038343 
    1.197843 
   1.1784958 
   1.1954334 
   1.1951808 
   1.1836842 
   1.2191785 
   1.1817329 
   1.1926563 
   1.1794056 
   1.1942727 
   1.1791525 
   1.1795515 
   1.1863495 
   1.2065311 
   1.2047287 
   1.1825912 
   1.2051359 
   1.2088777 
   1.1890704 
   1.1980152 
   1.1914604 
   1.1787334 
   1.2042473 
   1.1866671 
   1.1973369 
   1.1944954 
   1.1848391 
   1.2092265 
   1.1876887 
   1.1834058 
   1.1854475 
   1.1984662 
   1.1855681 
     1.20254 
   1.1862787 
   1.1994755 
   1.2063093 
   1.1929218 
   1.1924757 
   1.1987242 
   1.1972746 
    1.187691 
   1.1897532 
   1.1949718 
   1.1916677 
   1.2017443 
   1.1870615 
   1.2000678 
   1.1972068 
   1.1924425 
   1.1888837 
   1.1980156 
   1.2010336 
   1.2038299 
    1.182276 
   1.1911455 
    1.187275 
   1.1895664 
   1.2072696 
   1.1792423 
   1.2020866 
   1.1980021 
   1.1932424 
   1.2010772 
    1.196018 
   1.1828857 
   1.1841905 
   1.2061481 
   1.2047703 
   1.2143699 
   1.2101454 
   1.1820121 
   1.1963361 
   1.1892621 
   1.2093644 
   1.1860747 
   1.1811033 
   1.1933386 
   1.2041898 
   1.1919095 
   1.2046573 
   1.1959237 
   1.1841567 
   1.1978382 
   1.2002986 
   1.2039612 
    1.185683 
   1.1959576 
   1.2054785 
   1.1913604 
   1.1766247 
   1.1745282 
   1.1999126 
   1.2012834 
   1.1992534 
   1.1889048 
   1.1918666 
   1.1868144 
   1.1848937 
   1.1850308 
   1.1960528 
   1.1841177 
   1.2005593 
   1.2021078 
   1.1900312 
   1.1996279 
   1.2085346 
   1.2151296 
   1.1977116 
   1.1908001 
   1.2007697 
   1.2063049 
   1.1942998 
   1.1993852 
    1.190726 
   1.1827697 
   1.1948473 
   1.1974175 
   1.2047833 
     1.19293 
   1.2110759 
    1.187493 
   1.1842517 
   1.1968468 
   1.1932416 
   1.1865337 
    1.187817 
   1.1935247 
   1.1794516 
   1.2006205 
    1.189622 
   1.1888356 
   1.1830687 
   1.1958267 
   1.2079035 
   1.1947209 
   1.1861077 
   1.1972333 
   1.1972726 
   1.1866678 
   1.1936813 
   1.1918319 
   1.1823202 
   1.1887347 
      1.2067 
    1.200822 
   1.2039119 
   1.1824888 
   1.2051864 
   1.1973324 
   1.1882208 
   1.2051529 
   1.1986469 
   1.1820354 
   1.1870113 
   1.2038375 
    1.199929 
   1.1967715 
   1.1899364 
   1.1774205 
   1.1957973 
   1.2014289 
   1.1895284 
   1.1965488 
   1.2026632 
   1.1996839 
   1.1849199 
   1.2002135 
   1.2004691 
   1.1856004 
   1.1987741 
   1.2123829 
    1.196711 
   1.1979173 
   1.2080849 
   1.1947046 
   1.1861611 
    1.200518 
   1.1963247 
   1.1845744 
   1.1919324 
   1.1880329 
   1.1869689 
   1.2007601 
   1.1748183 
   1.1927521 
   1.2061764 
   1.2070496 
   1.2009284 
   1.1953536 
   1.2107129 
   1.2001669 
   1.2002917 
   1.1899489 
   1.1868902 
   1.1942471 
   1.1910882 
   1.2011572 
   1.1837082 
   1.1903853 
   1.1900966 
   1.2054179 
   1.1725311 
   1.1831631 
   1.2028682 
   1.2026494 
   1.1869605 
   1.1977915 
   1.1894355 
   1.2004278 
   1.2061205 
   1.2092418 
   1.1899986 
   1.1770209 
   1.2095395 
   1.1992685 
   1.1944107 
   1.1968732 
   1.2049023 
    1.187487 
   1.1950959 
    1.210803 
   1.1820856 
   1.2002502 
   1.2062826 
   1.1975922 
   1.1814304 
   1.1888239 
   1.1894206 
   1.1859757 
   1.1956835 
   1.2037224 
   1.2061987 
   1.1916859 
   1.2005931 
   1.1858349 
   1.1957546 
   1.1892263 
   1.1864447 
   1.1948174 
   1.1977341 
   1.1917378 
   1.2075438 
   1.2038593 
   1.1998742 
   1.2019598 
   1.1947157 
   1.1926239 
   1.1948181 
   1.1944021 
   1.1965855 
   1.2010302 
   1.2101108 
   1.1960101 
   1.1772127 
   1.1870868 
   1.1748719 
   1.1901581 
   1.2002181 
   1.1910279 
   1.1998051 
   1.2105365 
   1.1912903 
   1.1944914 
   1.1910402 
   1.1906122 
   1.1817182 
   1.1968611 
   1.1909387 
    1.182523 
   1.1957644 
    1.183335 
   1.1749957 
   1.2044867 
   1.1770917 
   1.1996986 
   1.2012465 
   1.2070181 
   1.2028407 
   1.1854538 
   1.1961438 
   1.1922705 
   1.1837356 
   1.1862643 
   1.2017869 
   1.1963976 
   1.1928059 
    1.197913 
   1.1951465 
   1.1927698 
    1.197164 
   1.2100798 
   1.1746299 
   1.1830997 
   1.2083657 
   1.2090227 
   1.2130711 
   1.2067233 
   1.1828237 
   1.1856605 
   1.1937326 
   1.1852556 
   1.1950233 
   1.1732526 
   1.2036516 
   1.1923022 
   1.1935248 
   1.1920886 
   1.2038912 
   1.1923311 
   1.2026087 
   1.1956102 
   1.1869487 
   1.1932511 
   1.1810146 
   1.1908178 
    1.193606 
    1.179678 
   1.1998396 
   1.2046278 
   1.1926903 
   1.1874974 
   1.1947522 
    1.199031 
   1.2023761 
   1.1887768 
   1.2029892 
   1.1865296 
   1.2113155 
   1.1758992 
   1.2017153 
   1.1953807 
   1.1889431 
   1.1870253 
   1.1972386 
   1.1993294 
   1.2070449 
   1.2028365 
   1.2033912 
   1.1998507 
   1.2117231 
Loop time of 5396.42 on 128 procs for 5000000 steps with 3216 atoms

Performance: 160.106 ns/day, 0.150 hours/ns, 926.540 timesteps/s
99.3% CPU use with 128 MPI tasks x no OpenMP threads

MPI task timing breakdown:
Section |  min time  |  avg time  |  max time  |%varavg| %total
---------------------------------------------------------------
Pair    | 1219.2     | 1468.4     | 1689.5     | 302.7 | 27.21
Bond    | 0.4802     | 0.58228    | 0.95331    |  10.9 |  0.01
Kspace  | 2165.2     | 2373       | 2602       | 231.6 | 43.97
Neigh   | 150.68     | 154.95     | 159.04     |  26.7 |  2.87
Comm    | 546.85     | 614.59     | 688.93     | 135.9 | 11.39
Output  | 0.018088   | 0.022685   | 0.04369    |   2.0 |  0.00
Modify  | 591.54     | 697.88     | 748.48     | 136.3 | 12.93
Other   |            | 87.05      |            |       |  1.61

Nlocal:    25.125 ave 34 max 17 min
Histogram: 5 6 18 8 31 29 12 14 4 1
Nghost:    2918.39 ave 2944 max 2889 min
Histogram: 3 3 12 15 21 23 24 8 14 5
Neighs:    9450.16 ave 12717 max 5883 min
Histogram: 2 6 13 13 27 17 25 15 6 4

Total # of neighbors = 1209621
Ave neighs/atom = 376.126
Ave special neighs/atom = 1.86567
Neighbor list builds = 435631
Dangerous builds = 0
Changing box ...
  orthogonal box = (1.06229 1.06229 1.06229) to (33.4044 33.2467 33.2467)
  orthogonal box = (1.06229 1.06229 1.06229) to (33.4044 33.4044 33.2467)
  orthogonal box = (1.06229 1.06229 1.06229) to (33.4044 33.4044 33.4044)
PPPM initialization ...
  extracting TIP4P info from pair style
  using 12-bit tables for long-range coulomb (../kspace.cpp:321)
  G vector (1/distance) = 0.309727
  grid = 30 30 30
  stencil order = 5
  estimated absolute RMS force accuracy = 0.0038432
  estimated relative force accuracy = 1.15737e-05
  using double precision FFTs
  3d grid and FFT values/proc = 2475 256
Setting up Verlet run ...
  Unit style    : real
  Current step  : 0
  Time step     : 0.001
Per MPI rank memory allocation (min/avg/max) = 8.201 | 8.212 | 8.218 Mbytes
Density 
   1.1940838 
   1.1940838 
Loop time of 7.85574 on 128 procs for 10000 steps with 3216 atoms

Performance: 0.110 ns/day, 218.215 hours/ns, 1272.955 timesteps/s
99.4% CPU use with 128 MPI tasks x no OpenMP threads

MPI task timing breakdown:
Section |  min time  |  avg time  |  max time  |%varavg| %total
---------------------------------------------------------------
Pair    | 1.2637     | 2.1802     | 3.0302     |  24.4 | 27.75
Bond    | 0.00072479 | 0.00084964 | 0.0017623  |   0.0 |  0.01
Kspace  | 2.8817     | 3.709      | 4.6175     |  18.3 | 47.21
Neigh   | 0          | 0          | 0          |   0.0 |  0.00
Comm    | 1.0383     | 1.132      | 1.194      |   3.5 | 14.41
Output  | 2.676e-05  | 3.4861e-05 | 9.2433e-05 |   0.0 |  0.00
Modify  | 0.65116    | 0.72081    | 0.77096    |   3.5 |  9.18
Other   |            | 0.1128     |            |       |  1.44

Nlocal:    25.125 ave 34 max 16 min
Histogram: 3 6 10 20 15 28 23 17 5 1
Nghost:    2888.5 ave 2919 max 2858 min
Histogram: 4 9 9 18 19 28 18 15 3 5
Neighs:    9322.94 ave 12351 max 5782 min
Histogram: 5 5 5 14 29 21 16 15 13 5

Total # of neighbors = 1193336
Ave neighs/atom = 371.062
Ave special neighs/atom = 1.86567
Neighbor list builds = 0
Dangerous builds = 0
PPPM initialization ...
  extracting TIP4P info from pair style
  using 12-bit tables for long-range coulomb (../kspace.cpp:321)
  G vector (1/distance) = 0.309727
  grid = 30 30 30
  stencil order = 5
  estimated absolute RMS force accuracy = 0.0038432
  estimated relative force accuracy = 1.15737e-05
  using double precision FFTs
  3d grid and FFT values/proc = 2475 256
Setting up Verlet run ...
  Unit style    : real
  Current step  : 10000
  Time step     : 0.01
Per MPI rank memory allocation (min/avg/max) = 8.201 | 8.212 | 8.218 Mbytes
Density 
   1.1940838 
   1.1940838 
Loop time of 8.46824 on 128 procs for 10000 steps with 3216 atoms

Performance: 1.020 ns/day, 23.523 hours/ns, 1180.883 timesteps/s
99.3% CPU use with 128 MPI tasks x no OpenMP threads

MPI task timing breakdown:
Section |  min time  |  avg time  |  max time  |%varavg| %total
---------------------------------------------------------------
Pair    | 1.2745     | 2.184      | 2.9507     |  23.3 | 25.79
Bond    | 0.00072409 | 0.00086543 | 0.0023616  |   0.0 |  0.01
Kspace  | 3.4706     | 4.2162     | 5.119      |  16.3 | 49.79
Neigh   | 0.0013225  | 0.0013584  | 0.0013976  |   0.0 |  0.02
Comm    | 1.055      | 1.1386     | 1.2205     |   3.4 | 13.45
Output  | 4.5365e-05 | 5.5049e-05 | 8.0401e-05 |   0.0 |  0.00
Modify  | 0.74027    | 0.81095    | 0.85681    |   3.3 |  9.58
Other   |            | 0.1161     |            |       |  1.37

Nlocal:    25.125 ave 36 max 16 min
Histogram: 1 8 13 18 28 24 26 4 4 2
Nghost:    2893.57 ave 2930 max 2861 min
Histogram: 3 13 15 24 22 16 10 10 6 9
Neighs:    9320.47 ave 12986 max 5208 min
Histogram: 1 4 11 14 18 35 24 11 7 3

Total # of neighbors = 1193020
Ave neighs/atom = 370.964
Ave special neighs/atom = 1.86567
Neighbor list builds = 4
Dangerous builds = 0
PPPM initialization ...
  extracting TIP4P info from pair style
  using 12-bit tables for long-range coulomb (../kspace.cpp:321)
  G vector (1/distance) = 0.309727
  grid = 30 30 30
  stencil order = 5
  estimated absolute RMS force accuracy = 0.0038432
  estimated relative force accuracy = 1.15737e-05
  using double precision FFTs
  3d grid and FFT values/proc = 2475 256
Setting up Verlet run ...
  Unit style    : real
  Current step  : 20000
  Time step     : 0.1
Per MPI rank memory allocation (min/avg/max) = 8.201 | 8.212 | 8.218 Mbytes
Density 
   1.1940838 
   1.1940838 
Loop time of 8.32475 on 128 procs for 10000 steps with 3216 atoms

Performance: 10.379 ns/day, 2.312 hours/ns, 1201.237 timesteps/s
99.3% CPU use with 128 MPI tasks x no OpenMP threads

MPI task timing breakdown:
Section |  min time  |  avg time  |  max time  |%varavg| %total
---------------------------------------------------------------
Pair    | 1.4368     | 2.1883     | 3.0197     |  20.0 | 26.29
Bond    | 0.00073262 | 0.00084726 | 0.0019629  |   0.0 |  0.01
Kspace  | 3.3181     | 4.1154     | 4.9012     |  14.4 | 49.44
Neigh   | 0.014376   | 0.014787   | 0.015011   |   0.1 |  0.18
Comm    | 1.0393     | 1.1542     | 1.2771     |   4.2 | 13.87
Output  | 2.4967e-05 | 3.7162e-05 | 7.8387e-05 |   0.0 |  0.00
Modify  | 0.65958    | 0.73324    | 0.78829    |   3.7 |  8.81
Other   |            | 0.1179     |            |       |  1.42

Nlocal:    25.125 ave 35 max 17 min
Histogram: 3 6 20 28 16 23 17 11 3 1
Nghost:    2891.62 ave 2920 max 2870 min
Histogram: 4 14 18 27 20 12 14 9 8 2
Neighs:    9318.22 ave 14231 max 5695 min
Histogram: 4 7 20 29 31 16 12 6 2 1

Total # of neighbors = 1192732
Ave neighs/atom = 370.874
Ave special neighs/atom = 1.86567
Neighbor list builds = 43
Dangerous builds = 0
PPPM initialization ...
  extracting TIP4P info from pair style
  using 12-bit tables for long-range coulomb (../kspace.cpp:321)
  G vector (1/distance) = 0.309727
  grid = 30 30 30
  stencil order = 5
  estimated absolute RMS force accuracy = 0.0038432
  estimated relative force accuracy = 1.15737e-05
  using double precision FFTs
  3d grid and FFT values/proc = 2475 256
Setting up Verlet run ...
  Unit style    : real
  Current step  : 30000
  Time step     : 0.2
Per MPI rank memory allocation (min/avg/max) = 8.201 | 8.212 | 8.218 Mbytes
Density 
   1.1940838 
   1.1940838 
Loop time of 8.16168 on 128 procs for 10000 steps with 3216 atoms

Performance: 21.172 ns/day, 1.134 hours/ns, 1225.238 timesteps/s
99.4% CPU use with 128 MPI tasks x no OpenMP threads

MPI task timing breakdown:
Section |  min time  |  avg time  |  max time  |%varavg| %total
---------------------------------------------------------------
Pair    | 1.5562     | 2.1975     | 2.9078     |  17.6 | 26.92
Bond    | 0.000723   | 0.00085709 | 0.0023574  |   0.0 |  0.01
Kspace  | 3.2702     | 3.9566     | 4.5911     |  13.0 | 48.48
Neigh   | 0.030649   | 0.032157   | 0.032542   |   0.2 |  0.39
Comm    | 1.0203     | 1.1092     | 1.179      |   3.7 | 13.59
Output  | 3.4685e-05 | 4.4393e-05 | 9.1982e-05 |   0.0 |  0.00
Modify  | 0.67276    | 0.75237    | 0.80842    |   3.9 |  9.22
Other   |            | 0.113      |            |       |  1.38

Nlocal:    25.125 ave 31 max 18 min
Histogram: 6 4 4 28 12 18 25 8 7 16
Nghost:    2884.43 ave 2912 max 2861 min
Histogram: 7 10 19 22 17 19 9 9 11 5
Neighs:    9319.52 ave 12633 max 6162 min
Histogram: 5 10 8 21 24 25 11 14 5 5

Total # of neighbors = 1192899
Ave neighs/atom = 370.926
Ave special neighs/atom = 1.86567
Neighbor list builds = 91
Dangerous builds = 0
PPPM initialization ...
  extracting TIP4P info from pair style
  using 12-bit tables for long-range coulomb (../kspace.cpp:321)
  G vector (1/distance) = 0.309727
  grid = 30 30 30
  stencil order = 5
  estimated absolute RMS force accuracy = 0.0038432
  estimated relative force accuracy = 1.15737e-05
  using double precision FFTs
  3d grid and FFT values/proc = 2475 256
Setting up Verlet run ...
  Unit style    : real
  Current step  : 40000
  Time step     : 0.5
Per MPI rank memory allocation (min/avg/max) = 8.201 | 8.212 | 8.218 Mbytes
Density 
   1.1940838 
   1.1940838 
Loop time of 8.06925 on 128 procs for 10000 steps with 3216 atoms

Performance: 53.537 ns/day, 0.448 hours/ns, 1239.273 timesteps/s
99.4% CPU use with 128 MPI tasks x no OpenMP threads

MPI task timing breakdown:
Section |  min time  |  avg time  |  max time  |%varavg| %total
---------------------------------------------------------------
Pair    | 1.4629     | 2.2157     | 2.7559     |  16.8 | 27.46
Bond    | 0.00073162 | 0.00084695 | 0.0018     |   0.0 |  0.01
Kspace  | 3.2853     | 3.8383     | 4.5509     |  12.6 | 47.57
Neigh   | 0.075351   | 0.076283   | 0.077111   |   0.1 |  0.95
Comm    | 1.0135     | 1.1038     | 1.1685     |   3.4 | 13.68
Output  | 3.8492e-05 | 4.9932e-05 | 7.5512e-05 |   0.0 |  0.00
Modify  | 0.65586    | 0.72223    | 0.77321    |   3.5 |  8.95
Other   |            | 0.112      |            |       |  1.39

Nlocal:    25.125 ave 34 max 17 min
Histogram: 4 6 14 22 26 19 13 17 6 1
Nghost:    2880.83 ave 2914 max 2856 min
Histogram: 2 10 21 33 24 20 5 6 3 4
Neighs:    9321.98 ave 14085 max 5665 min
Histogram: 2 10 18 22 37 17 12 6 3 1

Total # of neighbors = 1193213
Ave neighs/atom = 371.024
Ave special neighs/atom = 1.86567
Neighbor list builds = 222
Dangerous builds = 0
PPPM initialization ...
  extracting TIP4P info from pair style
  using 12-bit tables for long-range coulomb (../kspace.cpp:321)
  G vector (1/distance) = 0.309727
  grid = 30 30 30
  stencil order = 5
  estimated absolute RMS force accuracy = 0.0038432
  estimated relative force accuracy = 1.15737e-05
  using double precision FFTs
  3d grid and FFT values/proc = 2475 256
Setting up Verlet run ...
  Unit style    : real
  Current step  : 0
  Time step     : 2
Per MPI rank memory allocation (min/avg/max) = 8.201 | 8.212 | 8.218 Mbytes
Density 
   1.1940838 
   1.1940838 
   1.1940838 
   1.1940838 
   1.1940838 
   1.1940838 
   1.1940838 
   1.1940838 
   1.1940838 
   1.1940838 
   1.1940838 
Loop time of 86.802 on 128 procs for 100000 steps with 3216 atoms

Performance: 199.074 ns/day, 0.121 hours/ns, 1152.047 timesteps/s
99.3% CPU use with 128 MPI tasks x no OpenMP threads

MPI task timing breakdown:
Section |  min time  |  avg time  |  max time  |%varavg| %total
---------------------------------------------------------------
Pair    | 18.039     | 22.62      | 26.355     |  38.9 | 26.06
Bond    | 0.0073229  | 0.0085217  | 0.016969   |   1.3 |  0.01
Kspace  | 36.724     | 40.51      | 45.079     |  29.3 | 46.67
Neigh   | 2.9482     | 2.9728     | 3.0055     |   0.7 |  3.42
Comm    | 11.21      | 12.034     | 12.625     |   9.8 | 13.86
Output  | 0.00036263 | 0.00045745 | 0.00083587 |   0.0 |  0.00
Modify  | 6.7766     | 7.4818     | 7.9782     |  11.0 |  8.62
Other   |            | 1.174      |            |       |  1.35

Nlocal:    25.125 ave 35 max 16 min
Histogram: 2 3 8 31 22 31 23 6 1 1
Nghost:    2881.16 ave 2901 max 2859 min
Histogram: 4 7 15 11 12 28 22 14 11 4
Neighs:    9313.95 ave 14499 max 5569 min
Histogram: 4 5 19 30 29 27 10 3 0 1

Total # of neighbors = 1192185
Ave neighs/atom = 370.704
Ave special neighs/atom = 1.86567
Neighbor list builds = 8616
Dangerous builds = 0
WARNING: New thermo_style command, previous thermo_modify settings will be lost (../output.cpp:705)
PPPM initialization ...
  extracting TIP4P info from pair style
  using 12-bit tables for long-range coulomb (../kspace.cpp:321)
  G vector (1/distance) = 0.309727
  grid = 30 30 30
  stencil order = 5
  estimated absolute RMS force accuracy = 0.0038432
  estimated relative force accuracy = 1.15737e-05
  using double precision FFTs
  3d grid and FFT values/proc = 2475 256
Setting up Verlet run ...
  Unit style    : real
  Current step  : 0
  Time step     : 2
[...]
98190000    300.80693    297.36051    580.36182     67.26491   -24601.349     1986.076   -22615.273 
98200000    288.16759    297.77662    2.8681281    53.567126    -24489.02    1902.6249   -22586.395 
98210000    298.33059    298.11598    340.60712    18.867983   -24535.217     1969.726   -22565.491 
98220000    306.01303     298.1278   -440.82157   -72.530134   -24583.503    2020.4493   -22563.054 
98230000    295.93674    298.02027    -271.0385    -22.78707   -24428.529    1953.9206   -22474.609 
98240000    290.07267    298.09202    267.34738    69.420698   -24525.864    1915.2032   -22610.661 
98250000    298.07397    297.94462   -354.74663   -12.753997   -24442.327    1968.0317   -22474.295 
98260000     299.1608    298.04614    458.90529    43.370671   -24475.827    1975.2074    -22500.62 
98270000    300.54589    297.96968     428.5964   -99.747164   -24494.825    1984.3525   -22510.472 
98280000    292.93565    297.90953   -525.37777    62.018966     -24527.1    1934.1059   -22592.994 
98290000    291.63061    298.34939   -429.68047    52.952094   -24561.901    1925.4894   -22636.412 
98300000    294.10771    297.57613   -45.686071    -131.8937    -24500.51    1941.8445   -22558.666 
98310000    291.26711    297.94758   -574.63764   -65.431202   -24568.751    1923.0894   -22645.662 
98320000    293.55789    297.96202    305.61796   -116.64977   -24489.689    1938.2143   -22551.474 
98330000    298.36875    297.99907    625.21142    24.647195   -24452.246     1969.978   -22482.269 
98340000    308.06517    298.32252    389.09265    -32.69221   -24583.383    2033.9985   -22549.385 
98350000    291.13048    297.78173    -165.7547     1.099119   -24483.109    1922.1873   -22560.922 
98360000    294.85342    297.75391   -14.376704    21.110316   -24478.349     1946.768   -22531.581 
98370000    304.26168    297.91888    302.38488    60.931422   -24391.932     2008.886   -22383.046 
98380000    301.08931    298.02829   -353.15482   -10.556234   -24612.618    1987.9404   -22624.677 
98390000    301.53557    297.63423   -51.852627    80.469932   -24440.701    1990.8869   -22449.815 
98400000    301.98731     298.0371   -108.91595    118.74119   -24459.958    1993.8695   -22466.088 
98410000    291.20141    297.88213   -740.11825   -69.353201   -24468.874    1922.6557   -22546.218 
98420000    301.48063    298.37309    192.59976    68.089073   -24472.452    1990.5241   -22481.927 
98430000    299.38317    298.16584   -436.33237    28.083073   -24483.275    1976.6757     -22506.6 
98440000    299.33327    298.04725   -140.51366     27.19059     -24560.7    1976.3462   -22584.354 
98450000    301.64723    297.46427    560.01016   -28.380532   -24550.648    1991.6241   -22559.024 
98460000    303.24969    298.01445    588.71589    54.454131   -24504.185    2002.2043   -22501.981 
98470000    292.84758    298.17593    287.69312   -104.08456   -24587.461    1933.5245   -22653.937 
98480000    290.10108    298.01895   -604.65722    56.795593   -24467.952    1915.3907   -22552.561 
98490000    300.87458    298.18369   -118.95385   -67.337036   -24450.675    1986.5227   -22464.152 
98500000    299.75396     297.8256   -564.42381    19.128635   -24538.229    1979.1238   -22559.105 
98510000    284.34525    297.97612    280.21885   -47.398939   -24492.953    1877.3879   -22615.565 
98520000    289.19941    298.54791    768.62355   -134.78856   -24498.613    1909.4374   -22589.176 
98530000    303.15055    297.49815    432.55041    83.540971   -24549.079    2001.5497   -22547.529 
98540000    291.94089    297.72795    16.985152    133.55315    -24521.01    1927.5381   -22593.472 
98550000    299.61274    297.95997   -294.17149    81.902365   -24398.499    1978.1914   -22420.307 
98560000    302.20016    298.08021    816.66482   -15.398698   -24532.186    1995.2748   -22536.911 
98570000    303.75622    298.02198    -268.2801   -18.646502   -24571.038    2005.5487    -22565.49 
98580000    296.81567    298.21671    882.82512   -26.326348   -24437.503    1959.7238   -22477.779 
98590000     286.9439    297.90666    418.38367    78.593896   -24471.286    1894.5455    -22576.74 
98600000    295.71894    298.03248    196.82723    77.169468   -24471.113    1952.4826    -22518.63 
98610000    305.26843    298.09423    35.485493    62.386193   -24558.507    2015.5331   -22542.974 
98620000    294.75672    297.83274    -889.4737   -47.719596   -24532.948    1946.1295   -22586.819 
98630000    293.71737    297.99719    202.65743    2.7755773   -24493.395    1939.2673   -22554.128 
98640000     298.7108    298.11094    335.26819    109.69966   -24440.896    1972.2364    -22468.66 
98650000    293.33678    298.00719   -446.51418   -38.341422   -24512.909    1936.7544   -22576.154 
98660000    296.79097     298.5248    467.83399    83.912945   -24576.199    1959.5607   -22616.638 
98670000    297.76472    297.61702    77.936715   -74.580104   -24473.778    1965.9899   -22507.788 
98680000    306.30929    298.21627   -203.42151   -42.766391   -24681.276    2022.4053   -22658.871 
98690000    296.62858    297.82437   -304.12868     81.71454   -24479.869    1958.4885    -22521.38 
98700000    298.97927    297.84415    17.212024    26.554744   -24457.018    1974.0089   -22483.009 
98710000    294.55082    297.70561    -106.7282   -45.669288   -24477.772    1944.7701   -22533.002 
98720000    310.12356    298.08502    179.88991   -51.507982   -24578.558     2047.589   -22530.969 
98730000    311.46966    297.84404    749.80671    131.11242   -24548.672    2056.4766   -22492.195 
98740000    296.53508    298.15249   -260.20989    52.725423   -24525.188    1957.8712   -22567.317 
98750000    298.00519    297.93085    -156.9634    -99.43735   -24546.819    1967.5776   -22579.242 
98760000    294.75177    297.90122    277.33593    20.448946   -24510.293    1946.0969   -22564.196 
98770000    302.12124    298.06903   -238.38623    115.72989   -24578.676    1994.7537   -22583.922 
98780000    302.90873    297.94243    599.37283     95.28115   -24460.884    1999.9532   -22460.931 
98790000    300.84703    297.84005     106.4087   -26.340257   -24519.539    1986.3408   -22533.198 
98800000    301.91184    298.10412    481.01415   -105.05729   -24478.254    1993.3712   -22484.883 
98810000    288.00877    298.08819    214.08013     2.002527   -24481.373    1901.5762   -22579.797 
98820000    294.91887    298.40994    239.01913   -38.747113   -24571.572    1947.2002   -22624.372 
98830000      296.609    298.29505     275.4389   -6.6400377   -24529.886    1958.3592   -22571.526 
98840000    305.63805    298.31546    507.28996     -68.5076   -24438.563    2017.9735    -22420.59 
98850000    293.06359    298.35698   -230.47658    -53.34731   -24620.035    1934.9507   -22685.084 
98860000    301.92479    298.12453    946.15071   -6.7528455   -24480.738    1993.4567   -22487.281 
98870000    297.82442    298.11646   -235.19746   -19.142082   -24504.867     1966.384   -22538.483 
98880000    295.53623    298.21403    130.23594    73.615417   -24546.881    1951.2762   -22595.605 
98890000    288.43396    298.09145   -188.01894   -65.380312   -24434.086    1904.3836   -22529.702 
98900000    310.64558    297.84986   -371.16971   -154.69137   -24588.435    2051.0357     -22537.4 
98910000    301.49549    298.43573    435.86893   -42.008708   -24527.665    1990.6223   -22537.042 
98920000    295.82362     298.1727   -98.388152   -77.673525   -24542.967    1953.1738   -22589.793 
98930000    292.09466    298.29176    613.58105   -36.190033   -24398.242    1928.5533   -22469.689 
98940000    291.39064    298.35969   -150.79871   -49.267041   -24490.448     1923.905   -22566.543 
98950000    301.19393    298.53274    738.82203   -15.159363   -24575.562    1988.6312    -22586.93 
98960000    292.98535    298.01311   -70.620507   -48.791024   -24552.528    1934.4341   -22618.094 
98970000    297.32892    297.88859    369.23383    1.6826547   -24557.288    1963.1125   -22594.175 
98980000    296.58728    297.59603   -423.78811    33.194249   -24535.514    1958.2158   -22577.298 
98990000    296.98456    297.81477    47.136773   -133.78027    -24452.94    1960.8389   -22492.101 
99000000    287.98941    298.29388    393.25543     17.14436   -24530.401    1901.4485   -22628.953 
99010000    294.02614    297.54207    182.19956    100.60957   -24551.693    1941.3059   -22610.387 
99020000     289.0899    297.81868   -34.890071    71.959345   -24515.839    1908.7144   -22607.124 
99030000    300.47556    297.83709      -3.5621    67.485437   -24426.127    1983.8881   -22442.238 
99040000    304.32446    298.25786    580.43501     35.84586   -24534.136    2009.3005   -22524.835 
99050000    293.97487    298.15126    497.82753   -43.095513   -24416.293    1940.9674   -22475.326 
99060000    308.49504    297.86375    322.15807    -95.39483   -24521.625    2036.8367   -22484.788 
99070000    294.08882    297.98824   -355.56344   -17.458225   -24526.405    1941.7197   -22584.685 
99080000    287.40329     297.8091   -661.98503   -88.194531   -24553.359    1897.5786   -22655.781 
99090000    288.04244    297.87163   -959.59046   -229.93283   -24648.348    1901.7986   -22746.549 
99100000    296.05913    297.42508   -14.440599    51.770309   -24523.451    1954.7287   -22568.722 
99110000    304.22428     297.7489    375.26852   -3.5623729   -24473.166     2008.639   -22464.527 
99120000    300.44137     297.8384     70.98254    79.973647   -24531.583    1983.6624    -22547.92 
99130000    296.12398     297.8979   -130.55773    86.438957   -24521.355    1955.1569   -22566.198 
99140000    294.96865    297.61903   -252.20451   -19.461462   -24559.404    1947.5288   -22611.875 
99150000    296.56926    298.16708   -84.365672   -8.0065145   -24611.299    1958.0968   -22653.202 
99160000    295.26214    297.91642    397.42953     21.19423   -24499.433    1949.4666   -22549.966 
99170000    297.72208    297.91487    311.76623    87.855888   -24483.487    1965.7083   -22517.779 
99180000    295.99626    297.59126    150.50848     35.19331   -24522.038    1954.3136   -22567.724 
99190000    300.23081    297.86559   -320.02828   0.93660461   -24483.292    1982.2722    -22501.02 
99200000    292.92811    298.11125    33.146094   -95.269412   -24501.086    1934.0562    -22567.03 
99210000     296.1936    298.13853   -316.55044    61.707614   -24542.716    1955.6165     -22587.1 
99220000    291.66432    298.61564   -37.291072    40.988245   -24525.797     1925.712   -22600.085 
99230000    300.55008     298.3096   -482.49255   -44.242151   -24517.884    1984.3802   -22533.504 
99240000    299.85861    298.06471    390.84418     20.17751   -24482.289    1979.8148   -22502.475 
99250000    290.54352    297.65744    297.87368    21.971168   -24532.717    1918.3119   -22614.405 
99260000    290.55017    298.03904   -542.67262   -1.3657429   -24469.713    1918.3558   -22551.357 
99270000    297.25472    298.20591    -550.9249    91.240921   -24413.998    1962.6226   -22451.376 
99280000    298.00179    298.52198    755.33412    20.310437   -24511.473    1967.5551   -22543.918 
99290000    298.92907    298.26477   -12.472795   -132.10222   -24585.312    1973.6775   -22611.635 
99300000    299.58531    297.99401   -241.80523   -112.63486   -24504.587    1978.0103   -22526.576 
99310000    301.43314    297.90389   -263.23039   -61.882019   -24534.671    1990.2106   -22544.461 
99320000    296.02528    297.99434   -198.64191    193.83614   -24486.994    1954.5052   -22532.489 
99330000    294.09272    298.47746   -74.063855    37.101419   -24461.248    1941.7455   -22519.502 
99340000    293.82955    297.88199   -188.45501   -92.527892   -24590.811    1940.0079   -22650.803 
99350000    306.85739    297.41895   -327.77107   -51.022572   -24487.326    2026.0241   -22461.302 
99360000    301.02512    298.06264    343.73732   -26.893192   -24530.173    1987.5167   -22542.656 
99370000    302.17446    297.89549    598.40662    87.161375   -24525.448    1995.1051   -22530.342 
99380000    301.07073    298.25101   -455.28763   -28.134947   -24400.204    1987.8178   -22412.386 
99390000    301.40302    298.18065   -389.46064     20.43681   -24528.061    1990.0117   -22538.049 
99400000     307.2853    298.28855   -78.342603    12.441086   -24581.195    2028.8495   -22552.345 
99410000    285.76947    297.59625    574.75035    3.2632793   -24453.704    1886.7913   -22566.913 
99420000     297.0187    298.00256    308.59771   -56.947615   -24417.131    1961.0643   -22456.066 
99430000    297.87833    297.76102   -239.58112    43.700482   -24452.188      1966.74   -22485.448 
99440000    298.71415     297.8857     352.2657     14.84994   -24521.348    1972.2585    -22549.09 
99450000    302.60042     298.0983    90.388581    20.865848   -24454.567    1997.9175   -22456.649 
99460000    303.87914    298.21618    558.45119    -53.63375   -24336.232    2006.3603   -22329.872 
99470000    298.09149     297.9212    1099.5188   -45.245053   -24576.954    1968.1473   -22608.807 
99480000     303.9925    297.70468    5.8308308    32.870769   -24485.493    2007.1088   -22478.384 
99490000     303.7009    298.05502    774.58412   -87.816424   -24416.915    2005.1835   -22411.731 
99500000    299.06168    298.46144   -482.75778   -25.404275   -24513.054     1974.553   -22538.501 
99510000    305.73674    298.45706    239.11971    49.693392   -24570.035    2018.6251    -22551.41 
99520000    295.12705    297.88924    546.66321    87.803586   -24472.329    1948.5747   -22523.754 
99530000    294.11922    297.74065   -61.942985    92.322534   -24649.482    1941.9204   -22707.561 
99540000    303.78208    298.18683   -168.86213   -100.63796    -24475.76    2005.7194    -22470.04 
99550000     298.8049    297.80394    834.13842    66.153264   -24502.975    1972.8577   -22530.117 
99560000     303.1078    298.29328    109.91956    21.871391   -24539.226    2001.2675   -22537.959 
99570000    298.70649    297.77609   -31.691637    82.372792   -24526.846    1972.2079   -22554.639 
99580000    294.60797    298.29669    156.44818   -7.4118068   -24579.854    1945.1475   -22634.706 
99590000    295.53415    297.43856    357.51855   -21.863734   -24509.477    1951.2626   -22558.214 
99600000      305.205      297.889    291.97502   -73.779951   -24436.535    2015.1143   -22421.421 
99610000     301.2921    298.27484    401.81277     7.076748   -24464.135    1989.2794   -22474.855 
99620000    305.00971     297.8091    658.45221   -21.879879   -24494.384    2013.8249   -22480.559 
99630000    306.02141     298.1806    381.48447    4.1582658   -24525.922    2020.5046   -22505.417 
99640000    305.24974    298.25738   -369.03123   -85.727806    -24439.36    2015.4097    -22423.95 
99650000    293.80035     297.6475    438.98425    98.351755   -24555.806    1939.8151    -22615.99 
99660000    299.14319     297.9662   -658.43152   -28.064369   -24508.562    1975.0912   -22533.471 
99670000    292.77796    298.42583   -43.342547   -18.450869   -24547.588    1933.0648   -22614.524 
99680000    287.53179    297.95285   -690.02813    64.198029   -24543.123     1898.427   -22644.696 
99690000    300.21902    297.70683    75.503194    7.5088413   -24489.449    1982.1943   -22507.254 
99700000    302.57758    298.06552   -730.94947    94.131205   -24458.861    1997.7668   -22461.095 
99710000     296.9785    297.62574   -282.65133    49.711263   -24508.518    1960.7989   -22547.719 
99720000    300.41805     297.9788   -908.56581    135.55185   -24460.526    1983.5084   -22477.018 
99730000    296.26314    297.96878    220.71378   -36.403082   -24385.348    1956.0757   -22429.273 
99740000    296.84793    297.88755    24.840104   -19.367222   -24487.804    1959.9367   -22527.867 
99750000    296.19927    297.78878   -73.291061   -50.928421   -24513.842     1955.654   -22558.188 
99760000    307.00325    297.99192    792.97454    -11.96575   -24546.596    2026.9872   -22519.609 
99770000    287.18311    297.17791    864.95512    37.804706    -24487.18    1896.1248   -22591.055 
99780000     308.5351     298.0009   -259.02145    -38.57408   -24593.845    2037.1012   -22556.744 
99790000    303.04261    297.81669    446.31774    -85.06748   -24417.584    2000.8371   -22416.747 
99800000    293.18338    297.80565   -313.24611    116.65493   -24485.476    1935.7416   -22549.735 
99810000    290.30025    298.36876   -275.61963   -29.260243   -24537.358    1916.7057   -22620.652 
99820000    300.49704    297.68021    327.95005    100.53676   -24529.245      1984.03   -22545.215 
99830000    308.32914     297.8067   -11.457515    52.115432   -24475.455    2035.7414   -22439.714 
99840000    304.71644    297.95175    536.44581    58.153154   -24544.711    2011.8886   -22532.822 
99850000    297.26976    297.56335    53.367102    19.232903   -24445.449    1962.7219   -22482.727 
99860000    306.50191    298.28544   -214.12302    55.341611   -24450.801    2023.6771   -22427.124 
99870000    289.22496    297.76431   -599.20169    30.104017   -24497.142    1909.6061   -22587.535 
99880000    293.47591    297.93247   -524.34331   -53.909006   -24542.358     1937.673   -22604.685 
99890000     304.9774    298.20169   -132.83423    103.90575   -24515.878    2013.6115   -22502.266 
99900000    298.00792    297.74294    516.14582   -23.644488   -24456.674    1967.5956   -22489.078 
99910000    298.04949    297.84658    540.74761   -98.027452   -24511.698    1967.8701   -22543.828 
99920000    296.10045    298.11573   -614.62898    25.312913   -24665.024    1955.0015   -22710.023 
99930000    295.35709    298.30274   -228.86004    33.766656   -24490.716    1950.0935   -22540.623 
99940000    297.26351    297.68145    21.635824   -81.145655   -24539.899    1962.6806   -22577.218 
99950000    302.86177     297.9065    80.111343    37.463429   -24420.152    1999.6431   -22420.509 
99960000     293.5448    297.85177   -1117.8413    -6.116304   -24513.182    1938.1279   -22575.054 
99970000    307.20908    298.48846    132.67776   -18.921588   -24514.692    2028.3462   -22486.345 
99980000    300.55736     298.3877    207.78022    131.14863   -24506.273    1984.4283   -22521.845 
99990000    299.39987    298.68194    -11.65071    -32.30612   -24507.561    1976.7859   -22530.776 
100000000    303.80987    297.74599   -351.09945   -110.16286   -24453.198    2005.9029   -22447.296 
Loop time of 94773.8 on 128 procs for 100000000 steps with 3216 atoms

Performance: 182.329 ns/day, 0.132 hours/ns, 1055.144 timesteps/s
99.3% CPU use with 128 MPI tasks x no OpenMP threads

MPI task timing breakdown:
Section |  min time  |  avg time  |  max time  |%varavg| %total
---------------------------------------------------------------
Pair    | 20521      | 24505      | 27970      |1196.7 | 25.86
Bond    | 8.9501     | 10.205     | 15.93      |  34.6 |  0.01
Kspace  | 39720      | 43252      | 47209      | 906.6 | 45.64
Neigh   | 3047.8     | 3073.6     | 3098.6     |  23.1 |  3.24
Comm    | 11688      | 12502      | 13179      | 324.6 | 13.19
Output  | 4.7973     | 87.743     | 103.12     | 166.8 |  0.09
Modify  | 9136.8     | 9745.8     | 10448      | 322.7 | 10.28
Other   |            | 1598       |            |       |  1.69

Nlocal:    25.125 ave 34 max 17 min
Histogram: 2 9 15 16 30 24 11 15 4 2
Nghost:    2891.87 ave 2923 max 2862 min
Histogram: 5 11 14 15 18 19 19 18 8 1
Neighs:    9315.49 ave 13677 max 6549 min
Histogram: 8 15 25 25 19 15 9 7 4 1

Total # of neighbors = 1192383
Ave neighs/atom = 370.766
Ave special neighs/atom = 1.86567
Neighbor list builds = 8626303
Dangerous builds = 0

JOB STATISTICS
==============
Job ID: 2423582
Cluster: snellius
User/Group: phabibi/phabibi
State: COMPLETED (exit code 0)
Nodes: 1
Cores per node: 128
CPU Utilized: 155-16:38:24
CPU Efficiency: 99.31% of 156-18:46:24 core-walltime
Job Wall-clock time: 1-05:23:48
Memory Utilized: 20.79 GB (estimated maximum)
Memory Efficiency: 9.28% of 224.00 GB (1.75 GB/core)
