created by fftool

3144 atoms
2000 bonds
1000 angles
4 atom types
1 bond types
1 angle types
0.000000 32.566733 xlo xhi
0.000000 32.566733 ylo yhi
0.000000 32.566733 zlo zhi
Atoms

      1       1    1  -1.112800  1.280906e+01  3.888468e+00  3.019081e+01  # Ow water
      2       1    2   0.556400  1.346730e+01  3.484457e+00  2.962537e+01  # Hw water
      3       1    2   0.556400  1.300811e+01  3.556256e+00  3.106616e+01  # Hw water
      4       2    1  -1.112800  3.824347e+00  2.571644e+01  7.000520e+00  # Ow water
      5       2    2   0.556400  3.588229e+00  2.620218e+01  6.210245e+00  # Hw water
      6       2    2   0.556400  4.190800e+00  2.489383e+01  6.676096e+00  # Hw water
      7       3    1  -1.112800  1.696495e+00  2.667275e+00  1.344784e+01  # Ow water
      8       3    2   0.556400  1.500639e+00  1.765664e+00  1.370273e+01  # Hw water
      9       3    2   0.556400  1.868272e+00  3.118414e+00  1.427440e+01  # Hw water
     10       4    1  -1.112800  1.994249e+01  1.000980e+01  3.014269e+01  # Ow water
     11       4    2   0.556400  2.009334e+01  1.020879e+01  3.106675e+01  # Hw water
     12       4    2   0.556400  1.983872e+01  1.086563e+01  2.972674e+01  # Hw water
     13       5    1  -1.112800  1.690937e+01  2.388745e+01  2.343955e+01  # Ow water
     14       5    2   0.556400  1.694526e+01  2.484149e+01  2.337071e+01  # Hw water
     15       5    2   0.556400  1.597768e+01  2.368839e+01  2.353204e+01  # Hw water
     16       6    1  -1.112800  8.753914e+00  4.694123e+00  2.080144e+01  # Ow water
     17       6    2   0.556400  8.220929e+00  4.009206e+00  2.120523e+01  # Hw water
     18       6    2   0.556400  8.781344e+00  4.461079e+00  1.987345e+01  # Hw water
     19       7    1  -1.112800  2.667675e+00  2.528290e+01  1.654521e+01  # Ow water
     20       7    2   0.556400  1.757122e+00  2.542162e+01  1.628468e+01  # Hw water
     21       7    2   0.556400  3.042561e+00  2.616273e+01  1.658518e+01  # Hw water
     22       8    1  -1.112800  3.106589e+01  8.900402e+00  2.582837e+01  # Ow water
     23       8    2   0.556400  3.101136e+01  8.134310e+00  2.639964e+01  # Hw water
     24       8    2   0.556400  3.106679e+01  9.646940e+00  2.642746e+01  # Hw water
     25       9    1  -1.112800  2.185188e+01  3.054173e+01  1.493951e+01  # Ow water
     26       9    2   0.556400  2.265080e+01  3.106709e+01  1.489530e+01  # Hw water
     27       9    2   0.556400  2.127484e+01  3.103129e+01  1.552567e+01  # Hw water
     28      10    1  -1.112800  1.142476e+01  1.013473e+01  1.887464e+00  # Ow water
     29      10    2   0.556400  1.056062e+01  1.027407e+01  1.500072e+00  # Hw water
     30      10    2   0.556400  1.173212e+01  9.315180e+00  1.500049e+00  # Hw water
     31      11    1  -1.112800  1.514977e+01  3.102093e+01  7.563789e+00  # Ow water
     32      11    2   0.556400  1.606875e+01  3.106670e+01  7.299962e+00  # Hw water
     33      11    2   0.556400  1.466487e+01  3.098529e+01  6.739272e+00  # Hw water
     34      12    1  -1.112800  2.778132e+01  3.102278e+01  1.732976e+01  # Ow water
     35      12    2   0.556400  2.776221e+01  3.106710e+01  1.637378e+01  # Hw water
     36      12    2   0.556400  2.686747e+01  3.089093e+01  1.758221e+01  # Hw water
     37      13    1  -1.112800  1.644571e+01  5.376357e+00  2.091446e+00  # Ow water
     38      13    2   0.556400  1.712410e+01  5.020354e+00  1.517629e+00  # Hw water
     39      13    2   0.556400  1.573280e+01  5.616881e+00  1.499719e+00  # Hw water
     40      14    1  -1.112800  3.053295e+01  3.003889e+01  8.112145e+00  # Ow water
     41      14    2   0.556400  3.096493e+01  3.089289e+01  8.129536e+00  # Hw water
     42      14    2   0.556400  3.104429e+01  2.949897e+01  8.714846e+00  # Hw water
     43      15    1  -1.112800  3.087934e+01  2.727940e+01  2.616634e+01  # Ow water
     44      15    2   0.556400  3.106713e+01  2.641157e+01  2.580879e+01  # Hw water
     45      15    2   0.556400  2.993072e+01  2.728625e+01  2.629397e+01  # Hw water
     46      16    1  -1.112800  2.574492e+01  2.253874e+01  4.066479e+00  # Ow water
     47      16    2   0.556400  2.663763e+01  2.228646e+01  4.302397e+00  # Hw water
     48      16    2   0.556400  2.582911e+01  2.293715e+01  3.200220e+00  # Hw water
     49      17    1  -1.112800  3.050856e+01  1.499999e+00  2.233985e+00  # Ow water
     50      17    2   0.556400  3.106621e+01  1.598942e+00  3.005643e+00  # Hw water
     51      17    2   0.556400  3.106670e+01  1.756844e+00  1.500000e+00  # Hw water
     52      18    1  -1.112800  1.364974e+01  2.460366e+01  2.122776e+00  # Ow water
     53      18    2   0.556400  1.333417e+01  2.525849e+01  1.500006e+00  # Hw water
     54      18    2   0.556400  1.394873e+01  2.387703e+01  1.576105e+00  # Hw water
     55      19    1  -1.112800  3.105590e+01  1.623469e+01  1.938754e+01  # Ow water
     56      19    2   0.556400  3.017590e+01  1.659711e+01  1.928516e+01  # Hw water
     57      19    2   0.556400  3.106673e+01  1.546601e+01  1.881724e+01  # Hw water
     58      20    1  -1.112800  9.345091e+00  4.434699e+00  8.430108e+00  # Ow water
     59      20    2   0.556400  8.936552e+00  3.961526e+00  9.154975e+00  # Hw water
     60      20    2   0.556400  9.010539e+00  4.003979e+00  7.643480e+00  # Hw water
     61      21    1  -1.112800  1.500000e+00  2.505500e+01  1.718001e+00  # Ow water
     62      21    2   0.556400  2.001832e+00  2.584041e+01  1.500004e+00  # Hw water
     63      21    2   0.556400  2.084372e+00  2.432876e+01  1.500474e+00  # Hw water
     64      22    1  -1.112800  1.639778e+01  1.876808e+01  3.101093e+01  # Ow water
     65      22    2   0.556400  1.719195e+01  1.827424e+01  3.080686e+01  # Hw water
     66      22    2   0.556400  1.668800e+01  1.967878e+01  3.106222e+01  # Hw water
     67      23    1  -1.112800  2.514173e+01  2.860277e+01  3.034107e+01  # Ow water
     68      23    2   0.556400  2.596426e+01  2.819091e+01  3.007640e+01  # Hw water
     69      23    2   0.556400  2.538397e+01  2.917787e+01  3.106688e+01  # Hw water
     70      24    1  -1.112800  2.598253e+01  1.587024e+01  9.064836e+00  # Ow water
     71      24    2   0.556400  2.515946e+01  1.586196e+01  8.576259e+00  # Hw water
     72      24    2   0.556400  2.652179e+01  1.520459e+01  8.637834e+00  # Hw water
     73      25    1  -1.112800  1.304355e+01  1.875707e+01  2.120009e+00  # Ow water
     74      25    2   0.556400  1.249282e+01  1.827912e+01  1.499942e+00  # Hw water
     75      25    2   0.556400  1.325629e+01  1.957518e+01  1.670925e+00  # Hw water
     76      26    1  -1.112800  1.500021e+00  1.720707e+01  2.101085e+01  # Ow water
     77      26    2   0.556400  2.015402e+00  1.758137e+01  2.172536e+01  # Hw water
     78      26    2   0.556400  1.528348e+00  1.626258e+01  2.116369e+01  # Hw water
     79      27    1  -1.112800  1.534073e+01  3.078383e+01  3.958150e+00  # Ow water
     80      27    2   0.556400  1.620220e+01  3.106669e+01  4.264876e+00  # Hw water
     81      27    2   0.556400  1.527070e+01  2.987345e+01  4.245443e+00  # Hw water
     82      28    1  -1.112800  2.904932e+01  8.195800e+00  1.134887e+01  # Ow water
     83      28    2   0.556400  2.824424e+01  8.574440e+00  1.099572e+01  # Hw water
     84      28    2   0.556400  2.959658e+01  8.035635e+00  1.058004e+01  # Hw water
     85      29    1  -1.112800  1.606696e+00  2.569184e+01  2.553389e+01  # Ow water
     86      29    2   0.556400  1.499997e+00  2.493778e+01  2.495403e+01  # Hw water
     87      29    2   0.556400  2.221590e+00  2.539397e+01  2.620427e+01  # Hw water
     88      30    1  -1.112800  1.686265e+00  9.981662e+00  9.137291e+00  # Ow water
     89      30    2   0.556400  1.499525e+00  9.799933e+00  8.216242e+00  # Hw water
     90      30    2   0.556400  1.500042e+00  1.091490e+01  9.240322e+00  # Hw water
     91      31    1  -1.112800  1.575046e+01  2.479586e+01  2.041379e+01  # Ow water
     92      31    2   0.556400  1.611192e+01  2.422869e+01  2.109489e+01  # Hw water
     93      31    2   0.556400  1.535873e+01  2.552626e+01  2.089263e+01  # Hw water
     94      32    1  -1.112800  1.083076e+01  2.955414e+01  1.661579e+01  # Ow water
     95      32    2   0.556400  1.029747e+01  3.034031e+01  1.649844e+01  # Hw water
     96      32    2   0.556400  1.044719e+01  2.911506e+01  1.737494e+01  # Hw water
     97      33    1  -1.112800  1.500753e+01  2.645306e+01  2.503542e+01  # Ow water
     98      33    2   0.556400  1.424978e+01  2.702555e+01  2.515504e+01  # Hw water
     99      33    2   0.556400  1.503512e+01  2.628514e+01  2.409347e+01  # Hw water
    100      34    1  -1.112800  1.761499e+01  2.606366e+01  1.098300e+01  # Ow water
    101      34    2   0.556400  1.698388e+01  2.624905e+01  1.028761e+01  # Hw water
    102      34    2   0.556400  1.707797e+01  2.591773e+01  1.176181e+01  # Hw water
    103      35    1  -1.112800  1.494813e+01  2.176684e+01  1.575163e+01  # Ow water
    104      35    2   0.556400  1.445154e+01  2.163411e+01  1.655910e+01  # Hw water
    105      35    2   0.556400  1.559703e+01  2.243384e+01  1.597585e+01  # Hw water
    106      36    1  -1.112800  2.652939e+00  2.728728e+01  2.216804e+01  # Ow water
    107      36    2   0.556400  3.586580e+00  2.716684e+01  2.234135e+01  # Hw water
    108      36    2   0.556400  2.224120e+00  2.705608e+01  2.299199e+01  # Hw water
    109      37    1  -1.112800  3.733364e+00  2.148151e+01  1.568716e+01  # Ow water
    110      37    2   0.556400  4.075590e+00  2.070181e+01  1.612440e+01  # Hw water
    111      37    2   0.556400  3.498144e+00  2.207353e+01  1.640159e+01  # Hw water
    112      38    1  -1.112800  1.547854e+01  2.639670e+01  2.847316e+01  # Ow water
    113      38    2   0.556400  1.462541e+01  2.598166e+01  2.834613e+01  # Hw water
    114      38    2   0.556400  1.544404e+01  2.674887e+01  2.936255e+01  # Hw water
    115      39    1  -1.112800  1.499988e+00  2.776232e+01  4.480447e+00  # Ow water
    116      39    2   0.556400  1.499979e+00  2.708486e+01  5.156665e+00  # Hw water
    117      39    2   0.556400  1.640536e+00  2.728513e+01  3.662668e+00  # Hw water
    118      40    1  -1.112800  1.319509e+01  1.215925e+01  2.175917e+01  # Ow water
    119      40    2   0.556400  1.332719e+01  1.149864e+01  2.107919e+01  # Hw water
    120      40    2   0.556400  1.332891e+01  1.299462e+01  2.131142e+01  # Hw water
    121      41    1  -1.112800  1.992341e+01  2.551794e+01  9.459165e+00  # Ow water
    122      41    2   0.556400  1.923376e+01  2.485607e+01  9.509502e+00  # Hw water
    123      41    2   0.556400  1.950969e+01  2.626295e+01  9.023269e+00  # Hw water
    124      42    1  -1.112800  2.144210e+01  1.536957e+00  2.301115e+01  # Ow water
    125      42    2   0.556400  2.070185e+01  1.607757e+00  2.240845e+01  # Hw water
    126      42    2   0.556400  2.107077e+01  1.732779e+00  2.387138e+01  # Hw water
    127      43    1  -1.112800  9.977439e+00  2.799065e+01  1.499911e+00  # Ow water
    128      43    2   0.556400  1.063692e+01  2.867828e+01  1.591967e+00  # Hw water
    129      43    2   0.556400  9.140619e+00  2.844841e+01  1.580013e+00  # Hw water
    130      44    1  -1.112800  2.288476e+00  2.220597e+01  2.237336e+01  # Ow water
    131      44    2   0.556400  1.500012e+00  2.190097e+01  2.282228e+01  # Hw water
    132      44    2   0.556400  2.788705e+00  2.266206e+01  2.305010e+01  # Hw water
    133      45    1  -1.112800  2.093723e+01  4.174087e+00  2.905056e+01  # Ow water
    134      45    2   0.556400  2.125071e+01  3.479862e+00  2.847089e+01  # Hw water
    135      45    2   0.556400  2.074677e+01  4.907417e+00  2.846559e+01  # Hw water
    136      46    1  -1.112800  1.204060e+01  2.054297e+00  1.261264e+01  # Ow water
    137      46    2   0.556400  1.139987e+01  1.499993e+00  1.216719e+01  # Hw water
    138      46    2   0.556400  1.286531e+01  1.573881e+00  1.253989e+01  # Hw water
    139      47    1  -1.112800  1.766937e+00  8.797973e+00  1.498377e+00  # Ow water
    140      47    2   0.556400  1.991364e+00  7.887298e+00  1.689509e+00  # Hw water
    141      47    2   0.556400  1.722654e+00  9.219444e+00  2.356648e+00  # Hw water
    142      48    1  -1.112800  1.795032e+01  2.922089e+01  5.185669e+00  # Ow water
    143      48    2   0.556400  1.771615e+01  2.986702e+01  5.851932e+00  # Hw water
    144      48    2   0.556400  1.799158e+01  2.839076e+01  5.660433e+00  # Hw water
    145      49    1  -1.112800  1.442632e+01  1.023214e+01  1.771028e+01  # Ow water
    146      49    2   0.556400  1.484940e+01  9.509913e+00  1.817462e+01  # Hw water
    147      49    2   0.556400  1.369296e+01  1.048201e+01  1.827239e+01  # Hw water
    148      50    1  -1.112800  3.311961e+00  1.913354e+00  4.444046e+00  # Ow water
    149      50    2   0.556400  2.597533e+00  1.484572e+00  4.915179e+00  # Hw water
    150      50    2   0.556400  3.844396e+00  2.315843e+00  5.130155e+00  # Hw water
    151      51    1  -1.112800  3.097686e+01  2.404310e+00  1.229387e+01  # Ow water
    152      51    2   0.556400  3.106670e+01  2.976118e+00  1.153151e+01  # Hw water
    153      51    2   0.556400  3.106670e+01  1.518827e+00  1.194162e+01  # Hw water
    154      52    1  -1.112800  1.182137e+01  2.558580e+01  2.426019e+01  # Ow water
    155      52    2   0.556400  1.273212e+01  2.531393e+01  2.414680e+01  # Hw water
    156      52    2   0.556400  1.182953e+01  2.612957e+01  2.504789e+01  # Hw water
    157      53    1  -1.112800  7.667205e+00  8.894715e+00  1.184367e+01  # Ow water
    158      53    2   0.556400  6.863281e+00  8.387838e+00  1.172961e+01  # Hw water
    159      53    2   0.556400  8.366743e+00  8.241500e+00  1.183002e+01  # Hw water
    160      54    1  -1.112800  3.087573e+01  2.086813e+01  1.334563e+01  # Ow water
    161      54    2   0.556400  3.106664e+01  2.052737e+01  1.247175e+01  # Hw water
    162      54    2   0.556400  3.106707e+01  2.180407e+01  1.328534e+01  # Hw water
    163      55    1  -1.112800  2.374409e+01  1.362927e+01  1.185194e+01  # Ow water
    164      55    2   0.556400  2.421358e+01  1.436586e+01  1.224341e+01  # Hw water
    165      55    2   0.556400  2.332971e+01  1.318759e+01  1.259318e+01  # Hw water
    166      56    1  -1.112800  2.580354e+01  2.156168e+01  8.041733e+00  # Ow water
    167      56    2   0.556400  2.617384e+01  2.170725e+01  8.912315e+00  # Hw water
    168      56    2   0.556400  2.647509e+01  2.188075e+01  7.438869e+00  # Hw water
    169      57    1  -1.112800  2.833840e+01  1.427391e+01  1.053571e+01  # Ow water
    170      57    2   0.556400  2.872246e+01  1.359551e+01  9.980293e+00  # Hw water
    171      57    2   0.556400  2.855153e+01  1.509549e+01  1.009320e+01  # Hw water
    172      58    1  -1.112800  9.492606e+00  2.732591e+01  3.860630e+00  # Ow water
    173      58    2   0.556400  9.854685e+00  2.758283e+01  4.708640e+00  # Hw water
    174      58    2   0.556400  9.250402e+00  2.640654e+01  3.971692e+00  # Hw water
    175      59    1  -1.112800  2.372841e+01  2.549573e+01  4.734811e+00  # Ow water
    176      59    2   0.556400  2.409062e+01  2.630750e+01  4.379744e+00  # Hw water
    177      59    2   0.556400  2.423399e+01  2.480195e+01  4.311382e+00  # Hw water
    178      60    1  -1.112800  1.795612e+01  2.640802e+01  2.880681e+01  # Ow water
    179      60    2   0.556400  1.791973e+01  2.545704e+01  2.870414e+01  # Hw water
    180      60    2   0.556400  1.880800e+01  2.665578e+01  2.844745e+01  # Hw water
    181      61    1  -1.112800  2.322647e+01  2.019258e+01  4.186231e+00  # Ow water
    182      61    2   0.556400  2.345459e+01  2.110672e+01  4.355140e+00  # Hw water
    183      61    2   0.556400  2.275342e+01  1.991442e+01  4.970499e+00  # Hw water
    184      62    1  -1.112800  1.557649e+01  2.799290e+01  6.362911e+00  # Ow water
    185      62    2   0.556400  1.591260e+01  2.858569e+01  7.035118e+00  # Hw water
    186      62    2   0.556400  1.527641e+01  2.722466e+01  6.848694e+00  # Hw water
    187      63    1  -1.112800  1.796509e+01  1.128562e+01  2.420768e+01  # Ow water
    188      63    2   0.556400  1.854267e+01  1.052362e+01  2.416309e+01  # Hw water
    189      63    2   0.556400  1.835257e+01  1.191631e+01  2.360079e+01  # Hw water
    190      64    1  -1.112800  2.794525e+01  1.411787e+01  6.440700e+00  # Ow water
    191      64    2   0.556400  2.797122e+01  1.325132e+01  6.846471e+00  # Hw water
    192      64    2   0.556400  2.839458e+01  1.468842e+01  7.064251e+00  # Hw water
    193      65    1  -1.112800  1.266819e+01  2.891407e+01  2.599762e+01  # Ow water
    194      65    2   0.556400  1.230011e+01  2.859024e+01  2.517550e+01  # Hw water
    195      65    2   0.556400  1.253308e+01  2.819884e+01  2.661925e+01  # Hw water
    196      66    1  -1.112800  1.862339e+01  2.162689e+01  2.646467e+01  # Ow water
    197      66    2   0.556400  1.944316e+01  2.207826e+01  2.626348e+01  # Hw water
    198      66    2   0.556400  1.856643e+01  2.164720e+01  2.741995e+01  # Hw water
    199      67    1  -1.112800  2.456110e+00  7.669243e+00  2.614875e+01  # Ow water
    200      67    2   0.556400  3.174192e+00  7.038106e+00  2.610129e+01  # Hw water
    201      67    2   0.556400  2.872281e+00  8.485999e+00  2.642432e+01  # Hw water
    202      68    1  -1.112800  2.105910e+01  1.995022e+01  1.449622e+01  # Ow water
    203      68    2   0.556400  2.061282e+01  1.910354e+01  1.448281e+01  # Hw water
    204      68    2   0.556400  2.132737e+01  2.006570e+01  1.540777e+01  # Hw water
    205      69    1  -1.112800  6.498717e+00  1.476427e+01  2.085806e+00  # Ow water
    206      69    2   0.556400  6.473287e+00  1.552057e+01  1.499636e+00  # Hw water
    207      69    2   0.556400  6.523826e+00  1.400751e+01  1.500217e+00  # Hw water
    208      70    1  -1.112800  4.021275e+00  1.539848e+01  1.957948e+01  # Ow water
    209      70    2   0.556400  4.193650e+00  1.501316e+01  1.872038e+01  # Hw water
    210      70    2   0.556400  4.265046e+00  1.471411e+01  2.020274e+01  # Hw water
    211      71    1  -1.112800  3.082668e+01  5.137744e+00  1.313452e+01  # Ow water
    212      71    2   0.556400  3.095201e+01  6.037372e+00  1.343650e+01  # Hw water
    213      71    2   0.556400  3.106589e+01  4.596519e+00  1.388691e+01  # Hw water
    214      72    1  -1.112800  7.886733e+00  1.628190e+00  1.560234e+00  # Ow water
    215      72    2   0.556400  7.685717e+00  1.498055e+00  2.486995e+00  # Hw water
    216      72    2   0.556400  8.833166e+00  1.498582e+00  1.499447e+00  # Hw water
    217      73    1  -1.112800  2.296628e+01  1.360176e+01  2.271283e+01  # Ow water
    218      73    2   0.556400  2.336684e+01  1.273241e+01  2.271780e+01  # Hw water
    219      73    2   0.556400  2.317668e+01  1.395801e+01  2.184967e+01  # Hw water
    220      74    1  -1.112800  2.836619e+01  1.976644e+01  2.751377e+01  # Ow water
    221      74    2   0.556400  2.848654e+01  1.971592e+01  2.656551e+01  # Hw water
    222      74    2   0.556400  2.812506e+01  2.067830e+01  2.767685e+01  # Hw water
    223      75    1  -1.112800  2.207545e+01  6.671218e+00  2.596838e+01  # Ow water
    224      75    2   0.556400  2.130174e+01  6.470333e+00  2.544185e+01  # Hw water
    225      75    2   0.556400  2.272862e+01  6.964338e+00  2.533302e+01  # Hw water
    226      76    1  -1.112800  5.412127e+00  8.602747e+00  1.784544e+01  # Ow water
    227      76    2   0.556400  5.844470e+00  8.484256e+00  1.699970e+01  # Hw water
    228      76    2   0.556400  4.577798e+00  8.142362e+00  1.775505e+01  # Hw water
    229      77    1  -1.112800  3.056421e+01  1.589616e+01  3.106693e+01  # Ow water
    230      77    2   0.556400  3.106698e+01  1.655553e+01  3.058871e+01  # Hw water
    231      77    2   0.556400  3.098976e+01  1.506647e+01  3.085072e+01  # Hw water
    232      78    1  -1.112800  1.126969e+01  6.715943e+00  2.755515e+01  # Ow water
    233      78    2   0.556400  1.146173e+01  6.071062e+00  2.823595e+01  # Hw water
    234      78    2   0.556400  1.070460e+01  7.357822e+00  2.798514e+01  # Hw water
    235      79    1  -1.112800  7.139842e+00  2.686420e+01  1.067720e+01  # Ow water
    236      79    2   0.556400  6.677442e+00  2.763345e+01  1.034452e+01  # Hw water
    237      79    2   0.556400  6.749154e+00  2.670208e+01  1.153587e+01  # Hw water
    238      80    1  -1.112800  1.679367e+01  1.998971e+01  2.810050e+01  # Ow water
    239      80    2   0.556400  1.602326e+01  1.993808e+01  2.866621e+01  # Hw water
    240      80    2   0.556400  1.752520e+01  1.974819e+01  2.866862e+01  # Hw water
    241      81    1  -1.112800  2.048923e+01  2.233820e+01  1.682274e+01  # Ow water
    242      81    2   0.556400  2.086561e+01  2.286124e+01  1.753055e+01  # Hw water
    243      81    2   0.556400  2.019345e+01  2.153414e+01  1.724964e+01  # Hw water
    244      82    1  -1.112800  1.176874e+01  1.708539e+01  2.905241e+01  # Ow water
    245      82    2   0.556400  1.113703e+01  1.737482e+01  2.839407e+01  # Hw water
    246      82    2   0.556400  1.231565e+01  1.644630e+01  2.859559e+01  # Hw water
    247      83    1  -1.112800  2.991552e+01  1.500247e+00  5.222941e+00  # Ow water
    248      83    2   0.556400  2.935339e+01  1.553443e+00  5.995867e+00  # Hw water
    249      83    2   0.556400  3.065891e+01  2.067537e+00  5.427338e+00  # Hw water
    250      84    1  -1.112800  1.699349e+01  8.251516e+00  1.600693e+01  # Ow water
    251      84    2   0.556400  1.616356e+01  8.240315e+00  1.553016e+01  # Hw water
    252      84    2   0.556400  1.717098e+01  7.331242e+00  1.620142e+01  # Hw water
    253      85    1  -1.112800  2.083015e+00  8.143987e+00  1.694079e+01  # Ow water
    254      85    2   0.556400  1.499994e+00  8.061406e+00  1.769544e+01  # Hw water
    255      85    2   0.556400  1.500006e+00  8.340338e+00  1.620745e+01  # Hw water
    256      86    1  -1.112800  2.519451e+01  1.723653e+01  1.383247e+01  # Ow water
    257      86    2   0.556400  2.499821e+01  1.707585e+01  1.475544e+01  # Hw water
    258      86    2   0.556400  2.598938e+01  1.776969e+01  1.384546e+01  # Hw water
    259      87    1  -1.112800  4.419642e+00  8.429426e+00  2.027295e+01  # Ow water
    260      87    2   0.556400  5.011493e+00  7.677250e+00  2.025982e+01  # Hw water
    261      87    2   0.556400  4.017104e+00  8.402940e+00  2.114099e+01  # Hw water
    262      88    1  -1.112800  2.821392e+01  1.645645e+01  5.306022e+00  # Ow water
    263      88    2   0.556400  2.877698e+01  1.702219e+01  4.777694e+00  # Hw water
    264      88    2   0.556400  2.733138e+01  1.661668e+01  4.971831e+00  # Hw water
    265      89    1  -1.112800  1.544748e+00  1.526023e+00  2.805232e+01  # Ow water
    266      89    2   0.556400  1.500000e+00  2.458805e+00  2.784222e+01  # Hw water
    267      89    2   0.556400  1.714318e+00  1.500000e+00  2.899402e+01  # Hw water
    268      90    1  -1.112800  4.255272e+00  1.500001e+00  3.048136e+01  # Ow water
    269      90    2   0.556400  3.500715e+00  1.565223e+00  3.106670e+01  # Hw water
    270      90    2   0.556400  5.014345e+00  1.536830e+00  3.106333e+01  # Hw water
    271      91    1  -1.112800  6.175884e+00  5.043855e+00  3.096764e+01  # Ow water
    272      91    2   0.556400  7.103107e+00  5.259926e+00  3.106663e+01  # Hw water
    273      91    2   0.556400  5.722478e+00  5.881018e+00  3.106668e+01  # Hw water
    274      92    1  -1.112800  1.389288e+01  2.034924e+01  7.265954e+00  # Ow water
    275      92    2   0.556400  1.336369e+01  2.112535e+01  7.082020e+00  # Hw water
    276      92    2   0.556400  1.346814e+01  1.964691e+01  6.773453e+00  # Hw water
    277      93    1  -1.112800  1.757899e+01  2.715506e+01  2.407455e+01  # Ow water
    278      93    2   0.556400  1.780756e+01  2.808440e+01  2.409244e+01  # Hw water
    279      93    2   0.556400  1.841633e+01  2.670020e+01  2.416510e+01  # Hw water
    280      94    1  -1.112800  1.085448e+01  1.976206e+01  6.241724e+00  # Ow water
    281      94    2   0.556400  1.095272e+01  2.051750e+01  5.662173e+00  # Hw water
    282      94    2   0.556400  1.103472e+01  2.010579e+01  7.116704e+00  # Hw water
    283      95    1  -1.112800  2.192503e+01  2.565854e+01  2.379565e+01  # Ow water
    284      95    2   0.556400  2.230077e+01  2.641913e+01  2.335230e+01  # Hw water
    285      95    2   0.556400  2.128935e+01  2.602785e+01  2.440863e+01  # Hw water
    286      96    1  -1.112800  9.253562e+00  2.266152e+01  1.420539e+01  # Ow water
    287      96    2   0.556400  8.759933e+00  2.315776e+01  1.485831e+01  # Hw water
    288      96    2   0.556400  1.006116e+01  2.316093e+01  1.408456e+01  # Hw water
    289      97    1  -1.112800  7.366731e+00  2.070396e+01  2.293633e+01  # Ow water
    290      97    2   0.556400  8.039916e+00  2.066861e+01  2.361589e+01  # Hw water
    291      97    2   0.556400  6.802001e+00  2.143203e+01  2.319560e+01  # Hw water
    292      98    1  -1.112800  2.345208e+01  2.183299e+01  1.084857e+01  # Ow water
    293      98    2   0.556400  2.358410e+01  2.177891e+01  9.902066e+00  # Hw water
    294      98    2   0.556400  2.325340e+01  2.275517e+01  1.101087e+01  # Hw water
    295      99    1  -1.112800  2.449920e+01  2.098995e+01  2.086844e+00  # Ow water
    296      99    2   0.556400  2.523299e+01  2.117268e+01  1.500000e+00  # Hw water
    297      99    2   0.556400  2.377562e+01  2.076284e+01  1.502813e+00  # Hw water
    298     100    1  -1.112800  8.394636e+00  7.773764e+00  1.499902e+00  # Ow water
    299     100    2   0.556400  8.830663e+00  8.495813e+00  1.952400e+00  # Hw water
    300     100    2   0.556400  7.460592e+00  7.940023e+00  1.626983e+00  # Hw water
    301     101    1  -1.112800  2.102207e+01  1.311833e+01  2.414880e+00  # Ow water
    302     101    2   0.556400  2.125881e+01  1.327059e+01  1.500002e+00  # Hw water
    303     101    2   0.556400  2.134749e+01  1.388989e+01  2.878582e+00  # Hw water
    304     102    1  -1.112800  1.429579e+01  3.005518e+01  1.943608e+01  # Ow water
    305     102    2   0.556400  1.478183e+01  2.931719e+01  1.980400e+01  # Hw water
    306     102    2   0.556400  1.348869e+01  3.009084e+01  1.994945e+01  # Hw water
    307     103    1  -1.112800  9.099148e+00  2.233452e+01  2.135354e+01  # Ow water
    308     103    2   0.556400  9.766929e+00  2.234903e+01  2.066791e+01  # Hw water
    309     103    2   0.556400  8.273281e+00  2.222612e+01  2.088192e+01  # Hw water
    310     104    1  -1.112800  2.170797e+01  2.119691e+01  2.555871e+01  # Ow water
    311     104    2   0.556400  2.222666e+01  2.080732e+01  2.626256e+01  # Hw water
    312     104    2   0.556400  2.235330e+01  2.146101e+01  2.490294e+01  # Hw water
    313     105    1  -1.112800  1.253734e+01  2.187359e+01  1.902398e+01  # Ow water
    314     105    2   0.556400  1.210644e+01  2.196773e+01  1.987350e+01  # Hw water
    315     105    2   0.556400  1.313563e+01  2.113530e+01  1.913885e+01  # Hw water
    316     106    1  -1.112800  6.282678e+00  4.747074e+00  8.183655e+00  # Ow water
    317     106    2   0.556400  7.016730e+00  5.340762e+00  8.341552e+00  # Hw water
    318     106    2   0.556400  6.500489e+00  4.309751e+00  7.360530e+00  # Hw water
    319     107    1  -1.112800  1.143694e+01  8.934093e+00  2.289150e+01  # Ow water
    320     107    2   0.556400  1.193549e+01  9.724633e+00  2.309821e+01  # Hw water
    321     107    2   0.556400  1.205710e+01  8.374683e+00  2.242386e+01  # Hw water
    322     108    1  -1.112800  2.636462e+01  1.801953e+01  7.840599e+00  # Ow water
    323     108    2   0.556400  2.592852e+01  1.887152e+01  7.852704e+00  # Hw water
    324     108    2   0.556400  2.606321e+01  1.760713e+01  7.031087e+00  # Hw water
    325     109    1  -1.112800  2.564186e+01  2.924619e+01  7.886498e+00  # Ow water
    326     109    2   0.556400  2.508640e+01  2.977039e+01  8.463483e+00  # Hw water
    327     109    2   0.556400  2.618576e+01  2.872972e+01  8.481191e+00  # Hw water
    328     110    1  -1.112800  2.373739e+01  2.389436e+01  3.010761e+01  # Ow water
    329     110    2   0.556400  2.345145e+01  2.406769e+01  3.100451e+01  # Hw water
    330     110    2   0.556400  2.450950e+01  2.333712e+01  3.020534e+01  # Hw water
    331     111    1  -1.112800  9.259267e+00  1.899487e+00  2.499752e+01  # Ow water
    332     111    2   0.556400  8.510127e+00  2.328088e+00  2.458361e+01  # Hw water
    333     111    2   0.556400  9.738487e+00  1.500053e+00  2.427155e+01  # Hw water
    334     112    1  -1.112800  1.893281e+01  1.946819e+00  2.894639e+01  # Ow water
    335     112    2   0.556400  1.883771e+01  2.864793e+00  2.869241e+01  # Hw water
    336     112    2   0.556400  1.820940e+01  1.500001e+00  2.850678e+01  # Hw water
    337     113    1  -1.112800  1.908770e+01  2.687945e+01  3.997777e+00  # Ow water
    338     113    2   0.556400  1.980723e+01  2.631102e+01  4.272345e+00  # Hw water
    339     113    2   0.556400  1.950718e+01  2.771456e+01  3.790757e+00  # Hw water
    340     114    1  -1.112800  1.965782e+01  1.739846e+01  1.642065e+01  # Ow water
    341     114    2   0.556400  1.979377e+01  1.689324e+01  1.722220e+01  # Hw water
    342     114    2   0.556400  1.934654e+01  1.825117e+01  1.672432e+01  # Hw water
    343     115    1  -1.112800  2.731307e+00  1.060392e+01  3.059614e+01  # Ow water
    344     115    2   0.556400  1.977780e+00  1.024754e+01  3.106670e+01  # Hw water
    345     115    2   0.556400  3.491655e+00  1.025227e+01  3.105923e+01  # Hw water
    346     116    1  -1.112800  4.240721e+00  2.283780e+00  2.419871e+01  # Ow water