created by fftool

1705 atoms
1110 bonds
555 angles
4 atom types
1 bond types
1 angle types
0.000000 26.190141 xlo xhi
0.000000 26.190141 ylo yhi
0.000000 26.190141 zlo zhi
Atoms

      1       1    1  -1.112800  9.970637e+00  1.305907e+01  1.227540e+01  # Ow water
      2       1    2   0.556400  9.942302e+00  1.335428e+01  1.136530e+01  # Hw water
      3       1    2   0.556400  1.065994e+01  1.239511e+01  1.229097e+01  # Hw water
      4       2    1  -1.112800  2.383421e+01  2.469235e+01  1.304379e+01  # Ow water
      5       2    2   0.556400  2.461238e+01  2.469034e+01  1.248642e+01  # Hw water
      6       2    2   0.556400  2.309978e+01  2.466197e+01  1.243067e+01  # Hw water
      7       3    1  -1.112800  1.724585e+01  2.414238e+01  6.903846e+00  # Ow water
      8       3    2   0.556400  1.788007e+01  2.374948e+01  6.304151e+00  # Hw water
      9       3    2   0.556400  1.777299e+01  2.469005e+01  7.485579e+00  # Hw water
     10       4    1  -1.112800  1.082370e+01  1.220062e+01  2.089500e+00  # Ow water
     11       4    2   0.556400  1.103953e+01  1.293100e+01  1.509683e+00  # Hw water
     12       4    2   0.556400  1.061850e+01  1.147687e+01  1.497624e+00  # Hw water
     13       5    1  -1.112800  6.659007e+00  1.980392e+00  1.509040e+00  # Ow water
     14       5    2   0.556400  6.917473e+00  2.901983e+00  1.499388e+00  # Hw water
     15       5    2   0.556400  7.486299e+00  1.499011e+00  1.499549e+00  # Hw water
     16       6    1  -1.112800  1.909294e+01  1.491461e+01  9.670450e+00  # Ow water
     17       6    2   0.556400  1.821826e+01  1.454931e+01  9.537323e+00  # Hw water
     18       6    2   0.556400  1.897984e+01  1.555998e+01  1.036825e+01  # Hw water
     19       7    1  -1.112800  3.676377e+00  6.245875e+00  1.519698e+01  # Ow water
     20       7    2   0.556400  4.603470e+00  6.053262e+00  1.533708e+01  # Hw water
     21       7    2   0.556400  3.577561e+00  6.270633e+00  1.424522e+01  # Hw water
     22       8    1  -1.112800  9.666328e+00  1.637194e+01  2.380337e+00  # Ow water
     23       8    2   0.556400  9.382043e+00  1.610529e+01  1.506091e+00  # Hw water
     24       8    2   0.556400  9.222355e+00  1.720609e+01  2.533044e+00  # Hw water
     25       9    1  -1.112800  2.377012e+00  2.469459e+01  6.718379e+00  # Ow water
     26       9    2   0.556400  1.499026e+00  2.468787e+01  7.099594e+00  # Hw water
     27       9    2   0.556400  2.940306e+00  2.434121e+01  7.406894e+00  # Hw water
     28      10    1  -1.112800  4.291439e+00  2.158629e+01  6.835542e+00  # Ow water
     29      10    2   0.556400  4.092397e+00  2.066969e+01  7.026440e+00  # Hw water
     30      10    2   0.556400  4.385050e+00  2.161830e+01  5.883470e+00  # Hw water
     31      11    1  -1.112800  1.755781e+00  2.171251e+01  6.285371e+00  # Ow water
     32      11    2   0.556400  1.957754e+00  2.110914e+01  5.570261e+00  # Hw water
     33      11    2   0.556400  1.494698e+00  2.252333e+01  5.848745e+00  # Hw water
     34      12    1  -1.112800  2.421780e+00  2.374565e+01  1.491624e+00  # Ow water
     35      12    2   0.556400  1.495897e+00  2.350290e+01  1.498008e+00  # Hw water
     36      12    2   0.556400  2.421730e+00  2.469530e+01  1.611620e+00  # Hw water
     37      13    1  -1.112800  1.143826e+01  3.583337e+00  2.256319e+01  # Ow water
     38      13    2   0.556400  1.118618e+01  3.109460e+00  2.177065e+01  # Hw water
     39      13    2   0.556400  1.165768e+01  4.463327e+00  2.225709e+01  # Hw water
     40      14    1  -1.112800  2.150713e+01  2.440120e+00  1.496747e+00  # Ow water
     41      14    2   0.556400  2.168155e+01  1.499258e+00  1.520964e+00  # Hw water
     42      14    2   0.556400  2.172514e+01  2.747340e+00  2.376700e+00  # Hw water
     43      15    1  -1.112800  8.661368e+00  6.707977e+00  6.624577e+00  # Ow water
     44      15    2   0.556400  8.963872e+00  6.342605e+00  5.793179e+00  # Hw water
     45      15    2   0.556400  8.200547e+00  5.985332e+00  7.050789e+00  # Hw water
     46      16    1  -1.112800  1.313991e+01  6.612793e+00  2.408468e+01  # Ow water
     47      16    2   0.556400  1.247865e+01  6.955218e+00  2.468610e+01  # Hw water
     48      16    2   0.556400  1.369379e+01  7.366804e+00  2.388241e+01  # Hw water
     49      17    1  -1.112800  2.426668e+01  2.037524e+01  1.485158e+01  # Ow water
     50      17    2   0.556400  2.469032e+01  2.072142e+01  1.406614e+01  # Hw water
     51      17    2   0.556400  2.362456e+01  1.974712e+01  1.452088e+01  # Hw water
     52      18    1  -1.112800  1.732979e+01  1.192164e+01  1.573175e+01  # Ow water
     53      18    2   0.556400  1.659257e+01  1.168277e+01  1.516990e+01  # Hw water
     54      18    2   0.556400  1.802527e+01  1.216962e+01  1.512262e+01  # Hw water
     55      19    1  -1.112800  1.136177e+01  2.459820e+01  2.309649e+00  # Ow water
     56      19    2   0.556400  1.085601e+01  2.468936e+01  1.502107e+00  # Hw water
     57      19    2   0.556400  1.071317e+01  2.467679e+01  3.009201e+00  # Hw water
     58      20    1  -1.112800  1.856717e+01  1.975808e+01  1.472538e+01  # Ow water
     59      20    2   0.556400  1.914842e+01  2.042892e+01  1.436712e+01  # Hw water
     60      20    2   0.556400  1.845146e+01  1.913349e+01  1.400932e+01  # Hw water
     61      21    1  -1.112800  1.966538e+01  2.017007e+01  1.735265e+01  # Ow water
     62      21    2   0.556400  1.975466e+01  1.939157e+01  1.790237e+01  # Hw water
     63      21    2   0.556400  1.956725e+01  2.089215e+01  1.797330e+01  # Hw water
     64      22    1  -1.112800  8.718595e+00  6.525437e+00  2.084331e+00  # Ow water
     65      22    2   0.556400  8.900078e+00  7.260090e+00  1.498176e+00  # Hw water
     66      22    2   0.556400  8.537082e+00  5.790353e+00  1.498726e+00  # Hw water
     67      23    1  -1.112800  2.444009e+01  1.206694e+01  2.221904e+01  # Ow water
     68      23    2   0.556400  2.422003e+01  1.286637e+01  2.174079e+01  # Hw water
     69      23    2   0.556400  2.469194e+01  1.144211e+01  2.153904e+01  # Hw water
     70      24    1  -1.112800  2.424969e+01  1.903301e+01  2.036741e+01  # Ow water
     71      24    2   0.556400  2.469025e+01  1.887990e+01  2.120329e+01  # Hw water
     72      24    2   0.556400  2.469010e+01  1.844591e+01  1.975293e+01  # Hw water
     73      25    1  -1.112800  7.377510e+00  1.769814e+01  1.361992e+01  # Ow water
     74      25    2   0.556400  6.747702e+00  1.697849e+01  1.357899e+01  # Hw water
     75      25    2   0.556400  6.964109e+00  1.840715e+01  1.312734e+01  # Hw water
     76      26    1  -1.112800  1.222013e+01  2.204059e+01  1.783284e+01  # Ow water
     77      26    2   0.556400  1.239611e+01  2.227067e+01  1.692053e+01  # Hw water
     78      26    2   0.556400  1.134787e+01  2.239484e+01  1.800573e+01  # Hw water
     79      27    1  -1.112800  1.981470e+01  1.262555e+01  2.218908e+01  # Ow water
     80      27    2   0.556400  1.890900e+01  1.280485e+01  2.244163e+01  # Hw water
     81      27    2   0.556400  1.977814e+01  1.177443e+01  2.175262e+01  # Hw water
     82      28    1  -1.112800  1.992780e+01  2.435654e+01  4.554125e+00  # Ow water
     83      28    2   0.556400  1.908070e+01  2.469579e+01  4.265058e+00  # Hw water
     84      28    2   0.556400  2.002977e+01  2.469272e+01  5.444525e+00  # Hw water
     85      29    1  -1.112800  6.788197e+00  2.255703e+01  1.969904e+01  # Ow water
     86      29    2   0.556400  5.858516e+00  2.258233e+01  1.947258e+01  # Hw water
     87      29    2   0.556400  6.852676e+00  2.306808e+01  2.050582e+01  # Hw water
     88      30    1  -1.112800  1.838543e+01  9.678739e+00  1.605492e+01  # Ow water
     89      30    2   0.556400  1.920122e+01  9.900816e+00  1.650370e+01  # Hw water
     90      30    2   0.556400  1.860021e+01  9.736751e+00  1.512393e+01  # Hw water
     91      31    1  -1.112800  8.135871e+00  7.567879e+00  2.141603e+01  # Ow water
     92      31    2   0.556400  8.526527e+00  7.648563e+00  2.054591e+01  # Hw water
     93      31    2   0.556400  8.882864e+00  7.467890e+00  2.200615e+01  # Hw water
     94      32    1  -1.112800  2.236978e+01  2.164397e+01  1.669364e+01  # Ow water
     95      32    2   0.556400  2.285196e+01  2.245569e+01  1.685121e+01  # Hw water
     96      32    2   0.556400  2.145255e+01  2.191423e+01  1.665035e+01  # Hw water
     97      33    1  -1.112800  1.498316e+00  6.901385e+00  7.849022e+00  # Ow water
     98      33    2   0.556400  1.558284e+00  6.946626e+00  6.894776e+00  # Hw water
     99      33    2   0.556400  2.252763e+00  7.401181e+00  8.160861e+00  # Hw water
    100      34    1  -1.112800  1.848035e+01  1.201996e+01  1.893074e+01  # Ow water
    101      34    2   0.556400  1.931589e+01  1.224315e+01  1.934096e+01  # Hw water
    102      34    2   0.556400  1.870438e+01  1.182421e+01  1.802095e+01  # Hw water
    103      35    1  -1.112800  8.386723e+00  2.141459e+01  2.469124e+01  # Ow water
    104      35    2   0.556400  8.658684e+00  2.073538e+01  2.407405e+01  # Hw water
    105      35    2   0.556400  8.541407e+00  2.223700e+01  2.422655e+01  # Hw water
    106      36    1  -1.112800  1.982340e+01  3.897362e+00  4.425774e+00  # Ow water
    107      36    2   0.556400  2.052936e+01  3.863508e+00  5.071296e+00  # Hw water
    108      36    2   0.556400  1.938233e+01  4.729669e+00  4.595927e+00  # Hw water
    109      37    1  -1.112800  1.500219e+01  1.583770e+01  2.428925e+01  # Ow water
    110      37    2   0.556400  1.541861e+01  1.529760e+01  2.361760e+01  # Hw water
    111      37    2   0.556400  1.435081e+01  1.526221e+01  2.469019e+01  # Hw water
    112      38    1  -1.112800  1.135123e+01  1.508493e+00  1.188365e+01  # Ow water
    113      38    2   0.556400  1.156031e+01  2.437717e+00  1.197883e+01  # Hw water
    114      38    2   0.556400  1.044482e+01  1.496713e+00  1.157622e+01  # Hw water
    115      39    1  -1.112800  2.168452e+01  1.074503e+01  7.236187e+00  # Ow water
    116      39    2   0.556400  2.170557e+01  1.076729e+01  8.192895e+00  # Hw water
    117      39    2   0.556400  2.120629e+01  1.153625e+01  6.988190e+00  # Hw water
    118      40    1  -1.112800  3.954727e+00  2.029892e+01  1.960689e+01  # Ow water
    119      40    2   0.556400  4.561410e+00  1.956095e+01  1.966658e+01  # Hw water
    120      40    2   0.556400  3.974300e+00  2.055165e+01  1.868387e+01  # Hw water
    121      41    1  -1.112800  2.102313e+01  1.223490e+01  2.438319e+01  # Ow water
    122      41    2   0.556400  2.026411e+01  1.275224e+01  2.465240e+01  # Hw water
    123      41    2   0.556400  2.071155e+01  1.132986e+01  2.439059e+01  # Hw water
    124      42    1  -1.112800  1.493318e+00  9.445357e+00  6.938488e+00  # Ow water
    125      42    2   0.556400  1.587678e+00  1.015146e+01  7.577818e+00  # Hw water
    126      42    2   0.556400  2.343446e+00  9.402852e+00  6.500648e+00  # Hw water
    127      43    1  -1.112800  2.463903e+01  3.837182e+00  4.536631e+00  # Ow water
    128      43    2   0.556400  2.455651e+01  3.754786e+00  3.586563e+00  # Hw water
    129      43    2   0.556400  2.374409e+01  3.982412e+00  4.843562e+00  # Hw water
    130      44    1  -1.112800  6.784610e+00  7.677232e+00  1.521860e+01  # Ow water
    131      44    2   0.556400  6.926067e+00  6.819049e+00  1.481893e+01  # Hw water
    132      44    2   0.556400  6.020651e+00  8.031076e+00  1.476320e+01  # Hw water
    133      45    1  -1.112800  4.796297e+00  9.555458e+00  1.632091e+01  # Ow water
    134      45    2   0.556400  4.502176e+00  9.594762e+00  1.723095e+01  # Hw water
    135      45    2   0.556400  3.997163e+00  9.402104e+00  1.581683e+01  # Hw water
    136      46    1  -1.112800  1.632143e+01  4.958125e+00  1.295137e+01  # Ow water
    137      46    2   0.556400  1.696556e+01  4.979135e+00  1.224364e+01  # Hw water
    138      46    2   0.556400  1.639702e+01  4.077413e+00  1.331860e+01  # Hw water
    139      47    1  -1.112800  2.193043e+01  8.896329e+00  1.581234e+01  # Ow water
    140      47    2   0.556400  2.284777e+01  9.010537e+00  1.556397e+01  # Hw water
    141      47    2   0.556400  2.167539e+01  9.740913e+00  1.618363e+01  # Hw water
    142      48    1  -1.112800  4.299742e+00  2.148780e+01  2.350947e+00  # Ow water
    143      48    2   0.556400  3.996059e+00  2.180373e+01  1.499954e+00  # Hw water
    144      48    2   0.556400  3.973336e+00  2.058953e+01  2.403879e+00  # Hw water
    145      49    1  -1.112800  2.352605e+01  1.745856e+01  2.107023e+00  # Ow water
    146      49    2   0.556400  2.411557e+01  1.695521e+01  1.545482e+00  # Hw water
    147      49    2   0.556400  2.295832e+01  1.793007e+01  1.497441e+00  # Hw water
    148      50    1  -1.112800  9.669236e+00  8.576134e+00  2.410452e+01  # Ow water
    149      50    2   0.556400  1.025405e+01  8.095676e+00  2.469050e+01  # Hw water
    150      50    2   0.556400  9.084337e+00  9.056748e+00  2.469029e+01  # Hw water
    151      51    1  -1.112800  2.236856e+01  1.053071e+01  2.139472e+01  # Ow water
    152      51    2   0.556400  2.220825e+01  1.146403e+01  2.125529e+01  # Hw water
    153      51    2   0.556400  2.253405e+01  1.045338e+01  2.233433e+01  # Hw water
    154      52    1  -1.112800  2.385155e+01  1.548489e+01  2.051077e+01  # Ow water
    155      52    2   0.556400  2.469084e+01  1.502993e+01  2.058028e+01  # Hw water
    156      52    2   0.556400  2.346894e+01  1.515950e+01  1.969593e+01  # Hw water
    157      53    1  -1.112800  1.684308e+01  2.360799e+01  4.024139e+00  # Ow water
    158      53    2   0.556400  1.742577e+01  2.286716e+01  3.857194e+00  # Hw water
    159      53    2   0.556400  1.600869e+01  2.335008e+01  3.632334e+00  # Hw water
    160      54    1  -1.112800  9.030619e+00  1.867254e+00  2.115099e+01  # Ow water
    161      54    2   0.556400  9.697216e+00  1.499874e+00  2.057055e+01  # Hw water
    162      54    2   0.556400  9.232858e+00  1.499978e+00  2.201147e+01  # Hw water
    163      55    1  -1.112800  5.593680e+00  9.769546e+00  2.469025e+01  # Ow water
    164      55    2   0.556400  4.996813e+00  1.051786e+01  2.469131e+01  # Hw water
    165      55    2   0.556400  6.467722e+00  1.015972e+01  2.468388e+01  # Hw water
    166      56    1  -1.112800  1.609316e+00  4.024103e+00  7.866874e+00  # Ow water
    167      56    2   0.556400  1.499297e+00  4.128902e+00  6.921812e+00  # Hw water
    168      56    2   0.556400  2.516087e+00  3.736277e+00  7.972467e+00  # Hw water
    169      57    1  -1.112800  2.312076e+01  1.806982e+01  9.751051e+00  # Ow water
    170      57    2   0.556400  2.380100e+01  1.812610e+01  9.079975e+00  # Hw water
    171      57    2   0.556400  2.271866e+01  1.893843e+01  9.758607e+00  # Hw water
    172      58    1  -1.112800  2.406744e+01  1.534252e+01  7.784451e+00  # Ow water
    173      58    2   0.556400  2.325910e+01  1.558371e+01  8.236812e+00  # Hw water
    174      58    2   0.556400  2.469372e+01  1.602228e+01  8.033312e+00  # Hw water
    175      59    1  -1.112800  9.049560e+00  3.715088e+00  6.408279e+00  # Ow water
    176      59    2   0.556400  8.441163e+00  3.900262e+00  5.692882e+00  # Hw water
    177      59    2   0.556400  9.784430e+00  3.267763e+00  5.988641e+00  # Hw water
    178      60    1  -1.112800  1.282393e+01  2.412475e+01  9.311099e+00  # Ow water
    179      60    2   0.556400  1.230477e+01  2.469065e+01  8.739747e+00  # Hw water
    180      60    2   0.556400  1.305259e+01  2.468067e+01  1.005601e+01  # Hw water
    181      61    1  -1.112800  6.356633e+00  2.469059e+01  1.233017e+01  # Ow water
    182      61    2   0.556400  7.187281e+00  2.448301e+01  1.275815e+01  # Hw water
    183      61    2   0.556400  6.518702e+00  2.452937e+01  1.140067e+01  # Hw water
    184      62    1  -1.112800  1.709879e+01  1.720289e+01  1.048640e+01  # Ow water
    185      62    2   0.556400  1.776736e+01  1.766711e+01  1.099012e+01  # Hw water
    186      62    2   0.556400  1.649129e+01  1.686754e+01  1.114573e+01  # Hw water
    187      63    1  -1.112800  2.047040e+00  2.248076e+00  1.687241e+01  # Ow water
    188      63    2   0.556400  1.499079e+00  2.723788e+00  1.624818e+01  # Hw water
    189      63    2   0.556400  2.380421e+00  1.499687e+00  1.637744e+01  # Hw water
    190      64    1  -1.112800  6.132368e+00  1.107175e+01  2.332678e+00  # Ow water
    191      64    2   0.556400  6.593918e+00  1.116593e+01  1.499414e+00  # Hw water
    192      64    2   0.556400  6.157592e+00  1.194620e+01  2.721169e+00  # Hw water
    193      65    1  -1.112800  1.324678e+01  9.886966e+00  4.810794e+00  # Ow water
    194      65    2   0.556400  1.303163e+01  1.077845e+01  5.085011e+00  # Hw water
    195      65    2   0.556400  1.398966e+01  9.991447e+00  4.216285e+00  # Hw water
    196      66    1  -1.112800  1.490306e+01  2.260755e+01  1.686188e+01  # Ow water
    197      66    2   0.556400  1.530122e+01  2.343001e+01  1.714693e+01  # Hw water
    198      66    2   0.556400  1.477579e+01  2.210992e+01  1.766959e+01  # Hw water
    199      67    1  -1.112800  1.058921e+01  2.287592e+01  8.623487e+00  # Ow water
    200      67    2   0.556400  1.003308e+01  2.337094e+01  9.225070e+00  # Hw water
    201      67    2   0.556400  1.111012e+01  2.230759e+01  9.190837e+00  # Hw water
    202      68    1  -1.112800  2.172191e+01  1.054945e+01  1.898011e+01  # Ow water
    203      68    2   0.556400  2.121043e+01  1.098762e+01  1.829996e+01  # Hw water
    204      68    2   0.556400  2.249431e+01  1.021700e+01  1.852283e+01  # Hw water
    205      69    1  -1.112800  8.747959e+00  1.133453e+01  1.790324e+01  # Ow water
    206      69    2   0.556400  8.422999e+00  1.110045e+01  1.877263e+01  # Hw water
    207      69    2   0.556400  9.469538e+00  1.072587e+01  1.774484e+01  # Hw water
    208      70    1  -1.112800  2.010070e+01  2.120213e+01  6.695533e+00  # Ow water
    209      70    2   0.556400  2.037467e+01  2.108861e+01  7.605632e+00  # Hw water
    210      70    2   0.556400  1.969181e+01  2.206734e+01  6.674135e+00  # Hw water
    211      71    1  -1.112800  1.058071e+01  5.364454e+00  7.496852e+00  # Ow water
    212      71    2   0.556400  1.104998e+01  6.131979e+00  7.169870e+00  # Hw water
    213      71    2   0.556400  1.122946e+01  4.660867e+00  7.478918e+00  # Hw water
    214      72    1  -1.112800  1.533823e+01  7.209983e+00  5.618576e+00  # Ow water
    215      72    2   0.556400  1.507868e+01  6.546859e+00  4.978945e+00  # Hw water
    216      72    2   0.556400  1.460090e+01  7.819809e+00  5.644690e+00  # Hw water
    217      73    1  -1.112800  1.684137e+01  1.389916e+01  1.718092e+01  # Ow water
    218      73    2   0.556400  1.597004e+01  1.370576e+01  1.683509e+01  # Hw water
    219      73    2   0.556400  1.678880e+01  1.366631e+01  1.810787e+01  # Hw water
    220      74    1  -1.112800  6.888883e+00  1.643655e+01  2.072291e+00  # Ow water
    221      74    2   0.556400  6.639484e+00  1.652347e+01  2.992330e+00  # Hw water
    222      74    2   0.556400  6.067992e+00  1.624681e+01  1.618013e+00  # Hw water
    223      75    1  -1.112800  2.389038e+01  4.670122e+00  1.206286e+01  # Ow water
    224      75    2   0.556400  2.469157e+01  4.393424e+00  1.161815e+01  # Hw water
    225      75    2   0.556400  2.419408e+01  5.069940e+00  1.287781e+01  # Hw water
    226      76    1  -1.112800  2.021412e+01  1.561163e+00  1.145017e+01  # Ow water
    227      76    2   0.556400  2.116390e+01  1.498754e+00  1.134895e+01  # Hw water
    228      76    2   0.556400  2.008251e+01  1.724247e+00  1.238415e+01  # Hw water
    229      77    1  -1.112800  7.423693e+00  1.284561e+01  2.042751e+01  # Ow water
    230      77    2   0.556400  8.021650e+00  1.332048e+01  1.985029e+01  # Hw water
    231      77    2   0.556400  7.750092e+00  1.302314e+01  2.130966e+01  # Hw water
    232      78    1  -1.112800  9.494247e+00  1.068997e+01  6.068423e+00  # Ow water
    233      78    2   0.556400  9.457462e+00  9.897263e+00  5.533175e+00  # Hw water
    234      78    2   0.556400  1.034327e+01  1.108036e+01  5.861086e+00  # Hw water
    235      79    1  -1.112800  1.572464e+01  1.569389e+00  2.013083e+01  # Ow water
    236      79    2   0.556400  1.615886e+01  1.500034e+00  2.098105e+01  # Hw water
    237      79    2   0.556400  1.636524e+01  2.005585e+00  1.956906e+01  # Hw water
    238      80    1  -1.112800  1.228126e+01  8.280037e+00  1.418871e+01  # Ow water
    239      80    2   0.556400  1.247855e+01  9.055324e+00  1.471429e+01  # Hw water
    240      80    2   0.556400  1.235599e+01  7.548946e+00  1.480202e+01  # Hw water
    241      81    1  -1.112800  2.469492e+01  6.303866e+00  4.133832e+00  # Ow water
    242      81    2   0.556400  2.469235e+01  7.192644e+00  4.489213e+00  # Hw water
    243      81    2   0.556400  2.452184e+01  6.418529e+00  3.199421e+00  # Hw water
    244      82    1  -1.112800  1.413264e+01  1.553967e+00  1.193892e+01  # Ow water
    245      82    2   0.556400  1.492957e+01  1.525701e+00  1.246838e+01  # Hw water
    246      82    2   0.556400  1.444336e+01  1.697569e+00  1.104502e+01  # Hw water
    247      83    1  -1.112800  2.139051e+01  2.216493e+01  2.315755e+01  # Ow water
    248      83    2   0.556400  2.197854e+01  2.224513e+01  2.390856e+01  # Hw water
    249      83    2   0.556400  2.177367e+01  2.146702e+01  2.262619e+01  # Hw water
    250      84    1  -1.112800  5.412826e+00  2.082556e+01  1.510750e+01  # Ow water
    251      84    2   0.556400  4.647303e+00  2.090059e+01  1.567721e+01  # Hw water
    252      84    2   0.556400  5.355084e+00  1.994236e+01  1.474301e+01  # Hw water
    253      85    1  -1.112800  2.022368e+01  5.288759e+00  1.365276e+01  # Ow water
    254      85    2   0.556400  1.971600e+01  4.509607e+00  1.387950e+01  # Hw water
    255      85    2   0.556400  2.041826e+01  5.701651e+00  1.449412e+01  # Hw water
    256      86    1  -1.112800  2.438245e+01  1.670224e+01  2.349919e+01  # Ow water
    257      86    2   0.556400  2.469028e+01  1.584835e+01  2.319532e+01  # Hw water
    258      86    2   0.556400  2.391893e+01  1.707164e+01  2.274758e+01  # Hw water
    259      87    1  -1.112800  4.013407e+00  1.530524e+01  7.535853e+00  # Ow water
    260      87    2   0.556400  3.484443e+00  1.586173e+01  8.107471e+00  # Hw water
    261      87    2   0.556400  3.497834e+00  1.522685e+01  6.733190e+00  # Hw water
    262      88    1  -1.112800  6.748226e+00  8.625322e+00  1.103421e+01  # Ow water
    263      88    2   0.556400  6.194607e+00  8.805995e+00  1.027455e+01  # Hw water
    264      88    2   0.556400  7.589751e+00  8.363113e+00  1.066097e+01  # Hw water
    265      89    1  -1.112800  1.992741e+01  1.903354e+01  1.905243e+00  # Ow water
    266      89    2   0.556400  1.926380e+01  1.959016e+01  1.497770e+00  # Hw water
    267      89    2   0.556400  1.980514e+01  1.817636e+01  1.497177e+00  # Hw water
    268      90    1  -1.112800  1.157095e+01  2.460093e+01  2.139736e+01  # Ow water
    269      90    2   0.556400  1.061436e+01  2.458653e+01  2.142813e+01  # Hw water
    270      90    2   0.556400  1.177992e+01  2.468292e+01  2.046685e+01  # Hw water
    271      91    1  -1.112800  1.478329e+01  9.099656e+00  1.374705e+01  # Ow water
    272      91    2   0.556400  1.483120e+01  9.990676e+00  1.409348e+01  # Hw water
    273      91    2   0.556400  1.511572e+01  8.548505e+00  1.445553e+01  # Hw water
    274      92    1  -1.112800  3.580203e+00  1.385506e+01  2.465036e+01  # Ow water
    275      92    2   0.556400  3.399905e+00  1.296700e+01  2.434203e+01  # Hw water
    276      92    2   0.556400  3.476973e+00  1.440446e+01  2.387336e+01  # Hw water
    277      93    1  -1.112800  2.437723e+01  1.903793e+01  1.224481e+01  # Ow water
    278      93    2   0.556400  2.469001e+01  1.918055e+01  1.135147e+01  # Hw water
    279      93    2   0.556400  2.342822e+01  1.895038e+01  1.215571e+01  # Hw water
    280      94    1  -1.112800  1.303055e+01  4.249345e+00  1.758245e+01  # Ow water
    281      94    2   0.556400  1.240830e+01  4.407018e+00  1.687240e+01  # Hw water
    282      94    2   0.556400  1.388489e+01  4.223623e+00  1.715157e+01  # Hw water
    283      95    1  -1.112800  4.607930e+00  1.199922e+01  1.582889e+01  # Ow water
    284      95    2   0.556400  4.245074e+00  1.268851e+01  1.527261e+01  # Hw water
    285      95    2   0.556400  4.013980e+00  1.195817e+01  1.657840e+01  # Hw water
    286      96    1  -1.112800  1.814639e+01  2.399671e+01  2.160521e+01  # Ow water
    287      96    2   0.556400  1.841798e+01  2.469045e+01  2.220619e+01  # Hw water
    288      96    2   0.556400  1.784913e+01  2.328783e+01  2.217561e+01  # Hw water
    289      97    1  -1.112800  1.411560e+01  1.268762e+01  8.308542e+00  # Ow water
    290      97    2   0.556400  1.419183e+01  1.336664e+01  7.638204e+00  # Hw water
    291      97    2   0.556400  1.394502e+01  1.188381e+01  7.817611e+00  # Hw water
    292      98    1  -1.112800  1.244402e+01  1.029556e+01  2.469121e+01  # Ow water
    293      98    2   0.556400  1.233845e+01  9.423045e+00  2.431199e+01  # Hw water
    294      98    2   0.556400  1.283489e+01  1.081645e+01  2.398970e+01  # Hw water
    295      99    1  -1.112800  2.469122e+01  1.503586e+00  6.370583e+00  # Ow water
    296      99    2   0.556400  2.468367e+01  2.431908e+00  6.603802e+00  # Hw water
    297      99    2   0.556400  2.468909e+01  1.496581e+00  5.413413e+00  # Hw water
    298     100    1  -1.112800  1.326827e+01  7.015717e+00  3.320253e+00  # Ow water
    299     100    2   0.556400  1.387134e+01  7.737308e+00  3.141826e+00  # Hw water
    300     100    2   0.556400  1.260296e+01  7.395339e+00  3.894255e+00  # Hw water
    301     101    1  -1.112800  1.881861e+01  1.530473e+01  5.854861e+00  # Ow water
    302     101    2   0.556400  1.922260e+01  1.595877e+01  6.425168e+00  # Hw water
    303     101    2   0.556400  1.843565e+01  1.581332e+01  5.140083e+00  # Hw water
    304     102    1  -1.112800  4.746866e+00  7.087087e+00  1.813883e+01  # Ow water
    305     102    2   0.556400  5.528107e+00  6.950840e+00  1.760280e+01  # Hw water
    306     102    2   0.556400  4.031128e+00  7.155177e+00  1.750692e+01  # Hw water
    307     103    1  -1.112800  1.530104e+01  1.693386e+01  1.653080e+01  # Ow water
    308     103    2   0.556400  1.497308e+01  1.661614e+01  1.568953e+01  # Hw water
    309     103    2   0.556400  1.580190e+01  1.619953e+01  1.688593e+01  # Hw water
    310     104    1  -1.112800  1.996631e+00  6.176010e+00  1.035018e+01  # Ow water
    311     104    2   0.556400  1.499927e+00  6.357801e+00  1.114797e+01  # Hw water
    312     104    2   0.556400  1.499698e+00  5.486439e+00  9.909978e+00  # Hw water
    313     105    1  -1.112800  2.456935e+01  1.233756e+01  6.554508e+00  # Ow water
    314     105    2   0.556400  2.363555e+01  1.222461e+01  6.731912e+00  # Hw water
    315     105    2   0.556400  2.469025e+01  1.328550e+01  6.499546e+00  # Hw water
    316     106    1  -1.112800  4.402867e+00  1.871275e+01  1.122663e+01  # Ow water
    317     106    2   0.556400  4.584852e+00  1.782342e+01  1.092298e+01  # Hw water
    318     106    2   0.556400  4.688364e+00  1.871753e+01  1.214025e+01  # Hw water
    319     107    1  -1.112800  1.879189e+01  7.745233e+00  1.032477e+01  # Ow water
    320     107    2   0.556400  1.816074e+01  8.412594e+00  1.005549e+01  # Hw water
    321     107    2   0.556400  1.890673e+01  7.888673e+00  1.126417e+01  # Hw water
    322     108    1  -1.112800  3.789939e+00  1.224586e+01  9.589570e+00  # Ow water
    323     108    2   0.556400  4.524991e+00  1.164071e+01  9.490982e+00  # Hw water
    324     108    2   0.556400  4.194942e+00  1.311267e+01  9.618636e+00  # Hw water
    325     109    1  -1.112800  9.232858e+00  1.701089e+01  7.449096e+00  # Ow water
    326     109    2   0.556400  9.538648e+00  1.773303e+01  6.900251e+00  # Hw water
    327     109    2   0.556400  9.345231e+00  1.732664e+01  8.345702e+00  # Hw water
    328     110    1  -1.112800  5.946100e+00  2.448605e+01  6.653710e+00  # Ow water
    329     110    2   0.556400  5.828990e+00  2.353962e+01  6.571272e+00  # Hw water
    330     110    2   0.556400  6.665401e+00  2.469177e+01  6.056624e+00  # Hw water
    331     111    1  -1.112800  1.500029e+00  6.792189e+00  2.469018e+01  # Ow water
    332     111    2   0.556400  1.499984e+00  7.064695e+00  2.377259e+01  # Hw water
    333     111    2   0.556400  1.852633e+00  5.902411e+00  2.467627e+01  # Hw water
    334     112    1  -1.112800  6.211710e+00  2.107226e+01  2.186796e+01  # Ow water
    335     112    2   0.556400  6.294070e+00  2.029812e+01  2.131105e+01  # Hw water
    336     112    2   0.556400  6.561299e+00  2.079660e+01  2.271533e+01  # Hw water
    337     113    1  -1.112800  1.819263e+00  2.670569e+00  2.414323e+01  # Ow water
    338     113    2   0.556400  1.499966e+00  1.878734e+00  2.457598e+01  # Hw water
    339     113    2   0.556400  1.499950e+00  3.388325e+00  2.469012e+01  # Hw water
    340     114    1  -1.112800  6.593392e+00  2.144238e+01  1.293051e+01  # Ow water
    341     114    2   0.556400  6.160942e+00  2.220841e+01  1.255312e+01  # Hw water
    342     114    2   0.556400  6.173191e+00  2.069534e+01  1.250437e+01  # Hw water
    343     115    1  -1.112800  1.721862e+01  2.198164e+01  1.528505e+00  # Ow water
    344     115    2   0.556400  1.735079e+01  2.113383e+01  1.952743e+00  # Hw water
    345     115    2   0.556400  1.626783e+01  2.208586e+01  1.491531e+00  # Hw water
    346     116    1  -1.112800  1.125305e+01  9.389888e+00  3.224678e+00  # Ow water