3152
Atoms. Timestep: 0
O 29.1775 22.567 24.2657
H 29.1047 22.054 25.0706
H 28.7258 22.0421 23.605
O 14.9056 8.05458 5.83956
H 15.771 7.77583 6.13896
H 14.8722 7.78827 4.92076
O 25.6614 20.7942 8.54237
H 24.8866 20.5063 8.05959
H 25.8657 20.0635 9.12593
O 25.1679 8.77909 25.6627
H 25.4616 7.97832 25.2282
H 25.8836 9.00655 26.2561
O 24.328 10.6828 6.40385
H 25.2417 10.8498 6.63522
H 24.0135 11.5155 6.05181
O 4.88858 23.1447 28.6611
H 5.68195 23.2223 28.1312
H 5.04044 23.7251 29.407
O 18.6928 18.3237 9.28233
H 18.307 19.1612 9.02557
H 18.4452 18.2169 10.2008
O 9.85378 11.1524 5.30423
H 10.389 11.849 5.68434
H 10.4639 10.6469 4.76716
O 20.9496 9.4312 25.2828
H 20.517 8.88859 24.6235
H 20.2652 10.0248 25.5918
O 20.0696 29.2992 6.40789
H 20.878 29.7123 6.71154
H 20.3632 28.5716 5.85959
O 12.8577 20.5723 28.3523
H 12.2338 21.0558 27.8109
H 13.0447 21.1591 29.0851
O 30.1303 19.9489 32.6748
H 29.3532 19.4698 32.387
H 30.524 19.3883 1.37609
O 18.2888 27.974 16.8652
H 18.1355 27.033 16.7804
H 17.5279 28.3795 16.4494
O 2.17161 1.80144 15.0599
H 2.32983 2.34166 15.8341
H 2.98505 1.31168 14.9387
O 4.45155 15.4805 27.9003
H 5.06108 14.8802 27.471
H 4.64053 16.3339 27.5103
O 15.0972 19.7439 16.5769
H 15.5424 19.8548 15.7368
H 15.6439 19.1226 17.058
O 24.0986 24.2858 30.7464
H 23.9467 23.5014 31.2736
H 24.7844 24.0309 30.1292
O 14.7663 7.35182 3.2894
H 15.0695 7.92121 2.58226
H 14.8926 6.46432 2.95382
O 16.7831 29.4517 23.421
H 17.6451 29.1453 23.1392
H 16.2107 28.6925 23.3103
O 3.93667 30.4849 21.6991
H 4.57864 30.6909 22.3786
H 3.76244 31.3234 21.2715
O 17.0417 9.62525 12.953
H 17.0961 10.3832 12.371
H 16.7666 8.90568 12.3849
O 7.46595 18.8657 9.3856
H 7.88998 19.492 9.97234
H 8.03087 18.84 8.6133
O 11.9227 32.4094 18.0504
H 11.1201 0.951854 17.9391
H 12.5399 1.05176 18.4552
O 5.31508 30.623 4.28057
H 4.98596 29.7874 4.61173
H 5.96643 30.8972 4.92616
O 6.75758 29.2657 14.9899
H 6.71333 30.1205 15.4183
H 5.92064 28.8499 15.1969
O 5.86025 7.56563 8.37506
H 5.38857 7.54731 7.54234
H 5.17979 7.70707 9.03324
O 2.50627 2.33527 2.11086
H 2.92732 2.0385 1.30409
H 2.78328 1.70206 2.77309
O 1.53115 19.4991 22.2097
H 1.68353 20.4354 22.0824
H 2.38516 19.0942 22.0582
O 25.9295 31.0612 11.378
H 26.815 31.1985 11.0414
H 25.5501 31.939 11.4202
O 18.4118 10.9432 6.08395
H 19.1392 11.5654 6.09118
H 18.7835 10.1438 5.71097
O 26.8273 26.7093 30.7747
H 27.4987 26.0843 30.5011
H 27.2446 27.222 31.467
O 16.7494 8.93812 2.27399
H 16.9513 8.776 1.35248
H 17.4651 9.4939 2.58231
O 27.199 22.7339 6.62593
H 26.9088 23.1855 5.83344
H 26.8852 21.836 6.51901
O 13.2955 28.9187 24.5207
H 13.9802 28.6623 23.9029
H 13.7356 29.5034 25.1376
O 17.3068 20.1223 24.1002
H 18.0927 20.565 24.4205
H 17.6354 19.3388 23.6595
O 21.6362 11.0522 3.83965
H 20.9682 11.1279 3.15832
H 21.2269 10.5157 4.51852
O 17.1349 0.960088 23.3124
H 16.6912 1.68082 22.8652
H 17.9787 0.884406 22.8669
O 31.2425 11.4736 12.0158
H 31.5466 12.3654 12.1844
H 32.0408 10.979 11.83
O 23.6304 30.6248 28.6419
H 24.3057 30.5966 29.3198
H 23.6849 31.5115 28.2856
O 9.16736 4.76206 5.53867
H 9.26926 5.17038 6.39839
H 8.40465 4.19142 5.63289
O 31.9553 4.93926 25.9852
H 0.922199 5.01267 26.1811
H 31.519 5.18758 26.8002
O 6.70039 1.43909 20.7607
H 6.40407 32.7626 20.1172
H 7.33622 1.976 20.2877
O 25.884 19.0008 17.9099
H 25.3734 19.2972 18.6633
H 25.3359 18.3342 17.4957
O 32.7181 31.4761 15.4873
H 1.13224 32.3484 15.3876
H 1.4991 30.9059 15.6642
O 28.6258 14.8634 17.9847
H 27.6953 14.8631 17.7603
H 28.9362 13.9967 17.7223
O 23.098 1.04519 26.7113
H 22.4369 32.338 26.8675
H 22.9234 1.35082 25.8212
O 15.0603 21.6435 23.2239
H 15.3777 22.4208 22.7642
H 15.8492 21.2399 23.5858
O 6.68447 23.9204 10.6136
H 7.24198 24.695 10.54
H 6.79979 23.4618 9.7813
O 22.2013 16.1104 3.09054
H 22.8591 15.5064 2.74598
H 22.0053 15.7777 3.96637
O 25.9776 16.832 30.2265
H 25.4546 16.0402 30.1007
H 25.3332 17.5242 30.3744
O 28.9049 18.5789 10.7357
H 28.8607 18.391 9.79814
H 28.4144 17.8669 11.1465
O 27.8751 27.313 1.35915
H 27.5071 26.5597 1.82089
H 27.6756 28.0607 1.9225
O 7.76012 5.64578 32.7662
H 7.10083 6.30945 1.0017
H 7.75434 5.58572 31.8109
O 9.89585 30.6752 25.6809
H 10.4139 30.7189 24.8772
H 9.67489 29.7485 25.7739
O 19.4855 13.5587 16.147
H 18.788 12.9414 15.9262
H 19.0258 14.3419 16.4496
O 12.7069 14.653 32.1438
H 13.0682 14.9982 0.992909
H 12.2583 13.8477 32.4015
O 21.9688 6.39347 14.5255
H 21.5034 5.56403 14.4176
H 22.8947 6.15076 14.5262
O 2.74494 11.0697 16.6308
H 2.99996 10.313 17.1586
H 3.13359 11.8191 17.0821
O 11.1873 9.70489 23.8077
H 11.3069 9.63131 24.7545
H 12.029 10.0255 23.4837
O 28.1976 25.6567 4.45537
H 27.3522 25.2259 4.32858
H 28.8429 24.9617 4.32564
O 23.4016 32.2409 22
H 23.9614 31.8413 22.6658
H 23.1244 1.10427 22.3866
O 11.346 30.01 23.0845
H 12.1337 29.7268 23.5487
H 11.4051 30.9653 23.0723
O 9.00813 10.2994 27.7372
H 9.47874 10.9546 27.222
H 8.18864 10.1634 27.2617
O 13.745 15.9753 2.3833
H 13.0809 16.4386 2.89372
H 13.7392 15.0847 2.73414
O 11.6741 22.0289 15.8311
H 11.897 22.2529 14.9276
H 10.8271 21.5876 15.7669
O 19.5714 8.55207 5.19954
H 20.4789 8.30198 5.02565
H 19.0499 7.9354 4.68579
O 3.00285 32.0701 3.67596
H 2.74297 32.177 4.59098
H 3.92403 31.8131 3.71657
O 27.1102 21.4504 16.4869
H 26.7733 21.3368 15.5981
H 26.7901 20.6851 16.9645
O 13.535 26.4293 32.1211
H 13.4464 25.5487 31.7566
H 12.6417 26.6846 32.3514
O 1.66613 31.0469 12.8092
H 2.50463 30.6232 12.9926
H 1.22507 31.0836 13.6579
O 5.6513 8.17137 14.4807
H 5.24585 7.42429 14.9209
H 4.91613 8.73252 14.234
O 6.77302 27.5949 6.02018
H 7.35973 26.9061 5.70785
H 7.13831 28.403 5.65982
O 23.6297 27.3213 17.205
H 24.0999 26.6019 16.7836
H 24.2977 27.9908 17.3525
O 10.4324 9.84903 12.2173
H 9.65834 9.61135 11.7068
H 10.2139 10.6971 12.6037
O 1.82607 14.3123 22.8629
H 2.35439 14.9447 22.376
H 1.92801 13.4921 22.3801
O 13.0893 21.2248 11.4704
H 12.9552 20.2864 11.6029
H 13.1209 21.3309 10.5196
O 31.8347 27.8198 9.34725
H 32.7269 28.14 9.48008
H 31.5738 28.1808 8.49997
O 7.96297 8.89089 31.7727
H 8.33514 8.11916 31.3459
H 8.28461 9.62954 31.2559
O 29.2954 12.5568 6.69599
H 29.9812 11.9325 6.45904
H 29.4004 13.2764 6.0736
O 21.028 16.9381 8.67508
H 20.2244 17.4393 8.53669
H 21.2479 16.5934 7.80962
O 9.28313 22.0689 2.69175
H 9.88133 22.559 2.12768
H 8.45044 22.5357 2.62155
O 22.3761 3.546 20.5849
H 22.9306 3.25248 21.3078
H 21.4877 3.5267 20.9406
O 15.0947 4.85444 20.195
H 14.5123 5.52246 19.8333
H 15.5467 5.29439 20.915
O 14.0992 28.4469 30.1106
H 13.9353 27.7329 30.7267
H 13.6383 28.1864 29.3132
O 31.4373 6.50891 16.994
H 31.4952 6.52958 17.9492
H 30.5184 6.31045 16.8136
O 6.56604 3.01195 28.581
H 6.90382 2.30332 29.1287
H 6.2117 2.57057 27.809
O 11.14 23.4074 9.26064
H 10.5858 23.5895 10.0196
H 10.5706 22.931 8.65648
O 27.9962 18.3775 23.9094
H 27.8936 18.3548 24.8608
H 28.9137 18.6136 23.7725
O 28.8539 28.3676 9.59699
H 29.7921 28.3213 9.78103
H 28.7861 28.211 8.65512
O 13.8175 22.3212 30.6691
H 14.5387 22.4713 31.2804
H 13.0481 22.6773 31.1136
O 18.4476 11.2657 18.7628
H 19.2782 11.4365 18.3187
H 17.9543 12.0808 18.6709
O 29.8069 30.6753 31.8566
H 29.1864 30.6546 31.1281
H 30.0358 29.7575 32.0032
O 28.9739 28.0856 12.8654
H 29.1969 27.6855 13.7059
H 29.6137 28.7892 12.7573
O 7.62467 12.5176 32.6653
H 7.3065 13.4194 32.7085
H 7.78058 12.3626 31.7337
O 15.1289 15.9368 23.8941
H 14.7154 16.3795 23.153
H 14.4165 15.4542 24.3134
O 15.5677 10.494 24.5086
H 15.5187 10.7462 23.5866
H 15.6014 9.53752 24.4943
O 2.6387 29.3263 6.73051
H 2.72287 29.0996 7.65667
H 1.75848 29.036 6.49143
O 23.9578 23.7454 8.06007
H 23.4614 22.9715 7.79384
H 24.5254 23.9351 7.31302
O 9.29604 11.3999 2.3534
H 8.66902 11.926 1.85715
H 8.78633 10.6538 2.66935
O 5.95323 3.12677 8.7889
H 6.44004 3.6927 8.18976
H 5.56148 3.72824 9.42214
O 5.48695 3.07558 4.65479
H 5.59487 3.80381 4.04303
H 4.62011 3.21032 5.03777
O 4.94627 30.3758 12.7265
H 5.47756 29.6799 13.1135
H 4.88616 31.0412 13.412
O 31.8461 2.42105 2.04289
H 31.4997 1.53193 2.11842
H 0.829579 2.31022 2.0567
O 11.0291 27.368 21.4538
H 11.3713 26.4899 21.6215
H 11.1694 27.8409 22.2741
O 19.3501 17.5106 4.8636
H 20.1159 17.1746 5.32924
H 19.2075 18.3819 5.23347
O 3.2511 18.9744 3.59507
H 3.66578 18.8623 2.73966
H 2.69456 19.7464 3.49272
O 6.17092 13.6275 7.16024
H 5.7582 14.4836 7.04621
H 7.11001 13.8127 7.16609
O 3.91153 8.98343 18.5015
H 3.76524 8.13161 18.0902
H 4.86129 9.10052 18.4797
O 30.4366 15.5007 9.64106
H 30.1935 16.2715 9.12821
H 29.6021 15.0907 9.86834
O 2.06567 1.46127 23.7718
H 2.28634 2.29205 24.1929
H 2.83808 1.24422 23.2498
O 5.00722 4.99555 2.70434
H 4.17368 5.42946 2.52225
H 5.66945 5.66301 2.52499
O 5.26209 3.38181 32.2416
H 5.42743 4.01323 31.5415
H 4.93471 3.91056 1.00207
O 10.123 4.61711 26.3959
H 9.98903 5.17497 25.6297
H 10.9012 4.9768 26.8215
O 23.1584 24.8282 27.1201
H 23.8024 24.1927 27.4327
H 23.0575 24.6295 26.1892
O 27.8927 20.969 22.5684
H 27.932 20.1486 23.06
H 26.9635 21.086 22.3707
O 6.27863 5.18065 30.3224
H 5.7547 5.89312 29.9562
H 6.37142 4.55651 29.6026
O 4.65481 10.8236 14.8618
H 4.665 11.6938 14.4632
H 3.95371 10.8657 15.5121
O 26.8535 18.0399 14.8276
H 27.4527 18.783 14.7568
H 25.9828 18.4225 14.7195
O 11.8316 0.981401 6.75395
H 12.385 32.246 6.41287
H 12.4031 1.47136 7.34518
O 30.2803 30.7804 14.4388
H 31.0349 31.2026 14.8494
H 30.0475 31.3587 13.7124
O 8.34502 24.9086 24.3062
H 8.28548 25.7945 24.6639
H 7.93088 24.3544 24.9677
O 20.8381 31.87 12.6823
H 21.7176 32.1401 12.9467
H 20.8652 31.8677 11.7255
O 22.83 6.29304 20.125
H 21.9506 6.64523 20.2627
H 22.7723 5.38298 20.416
O 16.0227 28.9484 15.7412
H 15.7851 29.8601 15.5722
H 15.9658 28.5229 14.8857
O 9.37111 23.4578 21.0075
H 8.92214 24.2953 21.1227
H 8.86548 22.8398 21.5354
O 8.40348 26.0054 21.878
H 8.34686 25.6239 22.7541
H 9.21551 26.5121 21.8889
O 13.5997 13.9284 29.5952
H 14.5525 13.9918 29.6614
H 13.2788 14.2436 30.4401
O 17.0779 15.4787 12.6705
H 16.845 15.3239 13.5859
H 17.4443 16.3629 12.6623
O 29.4527 9.40248 3.53034
H 28.6187 9.03516 3.23763
H 29.6105 10.1397 2.94052
O 14.5365 28.1676 2.64002
H 13.9732 28.6213 2.01308
H 14.9996 28.8691 3.098
O 10.5409 31.8541 12.1599
H 10.1743 31.0524 12.533
H 11.1332 32.1843 12.8354
O 30.5618 24.9501 11.4077
H 30.8112 24.0385 11.5593
H 31.2985 25.4597 11.745
O 19.8042 16.1739 25.4452
H 19.1144 16.7818 25.1788
H 20.4132 16.7097 25.9533
O 27.6008 5.38634 20.1848
H 26.922 5.81453 20.7065
H 27.2289 5.33298 19.3044
O 25.2507 12.4254 28.481
H 26.1199 12.4535 28.0812
H 25.3388 11.8039 29.2036
O 15.2226 21.4805 18.9586
H 15.2143 21.0729 18.0926
H 16.0933 21.8715 19.0314
O 15.7941 23.1094 5.20299
H 16.6073 23.6131 5.16557
H 15.1486 23.7217 5.55606
O 24.8522 6.20329 17.2935
H 24.9705 7.0738 17.6736
H 24.2003 5.78307 17.8546
O 22.508 15.7377 27.9953
H 23.196 15.37 28.5501
H 22.9608 16.3732 27.441
O 8.17825 17.6135 26.251
H 8.18909 16.989 26.9763
H 7.28832 17.966 26.2511
O 5.55862 26.4499 22.0906
H 6.47445 26.5447 21.8289
H 5.55996 26.616 23.0333
O 7.83606 17.4907 13.6751
H 7.16854 16.9903 14.1443
H 7.34031 18.0518 13.0787
O 22.9399 12.4536 24.0153
H 22.7065 12.2433 23.1111
H 23.664 13.0748 23.9379
O 11.7789 20.1088 6.95662
H 11.1166 19.4383 7.12386
H 11.5631 20.4479 6.08788
O 22.0646 20.0719 27.6691
H 21.497 19.8999 28.4204
H 21.6167 20.7646 27.1836
O 22.3985 25.2075 10.0685
H 22.5005 26.1574 10.0096
H 22.9209 24.8646 9.34348
O 21.5529 20.0176 18.9074
H 21.5853 20.6255 18.1688
H 20.7657 20.2687 19.3906
O 4.93048 4.95708 21.5373
H 4.67678 5.21743 20.6519
H 5.09131 4.01563 21.4739
O 6.38312 21.0504 30.0093
H 6.01147 21.5624 29.291
H 7.27736 21.3793 30.1009
O 32.5369 13.3174 17.1683
H 32.6423 13.314 16.2169
H 1.40425 12.9895 17.5034
O 7.44127 28.4733 9.41307
H 7.9668 29.1979 9.07393
H 6.57347 28.8517 9.55425
O 2.81566 22.1941 26.9402
H 2.3338 21.4808 27.3589
H 3.50502 22.4175 27.5656
O 1.04758 14.1299 32.1475
H 1.09318 13.2646 32.5542
H 32.4939 13.9957 31.3557
O 12.6649 3.36069 11.9391
H 12.4644 2.60399 12.49
H 13.5657 3.21519 11.6501
O 29.41 31.7808 21.3209
H 29.5911 31.4741 22.2094
H 28.4812 32.0119 21.3313
O 25.0091 26.2233 24.0761
H 25.293 25.6261 23.384
H 24.7797 27.0312 23.6169
O 18.345 9.47272 22.4271
H 17.4854 9.77188 22.7234
H 18.9387 10.1897 22.6503
O 28.2909 11.7798 20.242
H 28.8486 11.0338 20.4628
H 28.6228 12.0861 19.3981
O 22.7373 20.3809 4.83844
H 23.5113 19.8177 4.84545
H 23.0301 21.1857 4.41091
O 30.6103 5.54781 4.37141
H 30.9725 6.07813 3.6616
H 29.8677 5.09177 3.97543
O 28.7437 22.3093 29.0906
H 28.5045 23.2355 29.1249
H 28.2082 21.898 29.7691
O 7.37161 31.9465 26.9628
H 7.86544 31.2799 26.4853
H 7.39342 31.6544 27.8741
O 31.2246 8.70047 8.01708
H 30.9174 9.48274 7.55891
H 31.9517 9.00903 8.55777
O 4.86893 19.482 8.36171
H 5.76263 19.325 8.66647
H 4.42537 19.8771 9.11226
O 12.542 20.5082 2.67854
H 12.3123 20.1469 1.82241
H 11.8215 21.102 2.88956
O 19.9561 7.21389 22.8849
H 19.4537 8.01804 22.7541
H 20.1277 6.89145 22.0002
O 30.2519 5.83713 28.2061
H 30.2626 4.89712 28.3864
H 30.0457 6.24082 29.0492
O 14.5287 19.9718 21.1283
H 14.6243 20.4804 20.323
H 14.7349 20.5906 21.8289
O 28.6785 28.5217 4.93967
H 28.6094 27.6623 4.52396
H 29.2832 28.3875 5.66942
O 26.4714 21.7415 30.8398
H 26.9047 22.447 31.3203
H 26.1796 22.1501 30.0249
O 16.8446 20.045 14.0876
H 16.4704 20.296 13.243
H 17.7126 20.4485 14.0948
O 21.2603 30.8238 16.6527
H 22.1887 31.0288 16.7635
H 20.8335 31.6772 16.5766
O 28.7002 28.9699 20.5934
H 28.3341 28.2096 20.1414
H 28.1183 29.108 21.3407
O 26.9081 25.3334 25.7366
H 26.7044 24.4082 25.8738
H 26.278 25.6226 25.0767
O 27.6783 4.04795 10.8357
H 28.2061 4.69892 10.3732
H 28.0896 3.97347 11.6968
O 6.43194 4.04774 13.8901
H 5.64849 4.58934 13.9855
H 6.43515 3.49103 14.6687
O 22.2956 11.315 21.5232
H 22.2022 11.6941 20.6493
H 21.4358 11.4302 21.9279
O 22.6052 1.95398 9.96368
H 21.9638 1.24371 9.98254
H 22.8165 2.11098 10.884
O 9.16509 22.9277 11.434
H 9.60393 23.6227 11.9245
H 8.30479 23.2899 11.2221
O 13.1032 12.9458 12.1859
H 12.7091 13.7729 12.4633
H 12.8387 12.3169 12.8572
O 20.8198 24.7732 16.4084
H 20.703 25.6605 16.748
H 20.5044 24.8182 15.5058
O 28.3631 26.6374 19.2972
H 28.5334 26.7751 18.3654
H 28.9576 25.9304 19.5479
O 25.4133 30.5379 3.24246
H 24.8588 31.1412 2.74773
H 24.9536 30.4157 4.07309
O 24.6147 20.2432 28.4094
H 23.6893 20.2749 28.167
H 24.8767 21.1613 28.4772
O 6.22201 14.9412 21.5658
H 6.91053 14.6862 20.9516
H 6.49228 15.8019 21.8855
O 3.42225 3.10061 17.2606
H 3.53453 3.88199 17.802
H 4.26241 2.99515 16.8143
O 30.9989 10.7484 5.90005
H 31.7982 11.255 5.75629
H 30.7532 10.4354 5.02943
O 18.4509 5.72822 15.7572
H 19.3314 5.58264 16.1031
H 18.5149 5.49379 14.8313
O 14.9526 18.5513 9.60175
H 15.5091 19.1456 10.105
H 14.1336 18.5133 10.0959
O 23.9278 3.43567 28.5076
H 23.5484 4.31192 28.5745
H 23.1743 2.85564 28.3979
O 11.9737 23.6048 2.44608
H 11.4622 24.3414 2.78084
H 11.9169 23.6862 1.49404
O 27.7666 17.5656 2.14824
H 27.9069 17.1168 1.31447
H 27.6396 16.8598 2.78225
O 12.586 27.5769 4.51311
H 11.8255 27.2188 4.05509
H 13.181 27.8486 3.8143
O 32.2446 22.8662 25.4497
H 31.7306 22.1093 25.731
H 31.6004 23.5651 25.3368
O 13.0538 11.4488 14.2192
H 13.513 11.7838 14.9894
H 12.4121 10.8322 14.5717
O 30.5828 11.9994 3.03812
H 31.538 12.0584 3.01737
H 30.2923 12.5548 2.31465
O 20.7402 4.02501 25.0163
H 19.874 4.42299 24.9294
H 20.8037 3.78798 25.9415
O 2.99885 12.3617 30.5292
H 3.64074 12.2806 29.8238
H 2.18287 12.0354 30.1499
O 2.0827 22.7536 21.8085
H 1.60035 22.8053 20.9833
H 2.93947 23.1313 21.6097
O 7.76469 27.1701 18.411
H 8.01503 26.259 18.2583
H 7.01559 27.3134 17.8326
O 17.3713 25.115 24.3995
H 17.0482 25.8366 24.9391
H 18.0986 25.4924 23.9047
O 32.7481 31.6433 31.7937
H 31.9035 31.2255 31.6252
H 1.14248 31.162 32.5379
O 31.5677 10.1556 25.0293
H 31.5569 10.9799 25.5159
H 31.2584 9.50242 25.6569
O 21.0121 25.1487 1.64537
H 20.8731 25.0066 2.58169
H 21.7218 25.7897 1.60269
O 10.6833 6.67755 19.9057
H 9.98827 6.6205 19.2501
H 10.5313 7.51462 20.3444
O 11.0398 5.04245 30.3703
H 11.6349 5.16407 31.1101
H 10.3745 5.72123 30.4833
O 13.7325 2.26559 8.17242
H 14.4428 2.00201 7.58744
H 14.1751 2.5834 8.95938
O 28.5206 32.4794 15.7017
H 29.0913 1.27849 15.6435
H 29.0059 31.7845 15.2569
O 20.6236 5.80571 17.5369
H 21.0247 6.64614 17.3154
H 20.2595 5.93686 18.4124
O 27.254 15.6254 24.7355
H 27.9111 14.9754 24.9843
H 27.737 16.2686 24.2165
O 1.11086 31.9148 20.3279
H 1.77517 32.442 19.8841
H 1.17353 31.0532 19.9157
O 17.5805 23.919 30.8026
H 17.8067 24.654 31.3726
H 16.8625 24.2472 30.2613
O 20.06 9.29048 30.1783
H 20.4946 10.09 29.8814
H 19.3377 9.16705 29.5624
O 22.9897 31.3521 31.734
H 22.9337 30.3974 31.6926
H 22.1256 31.6555 31.4558
O 12.0672 16.7207 15.47
H 11.1639 16.8273 15.7681
H 12.3805 17.6142 15.3292
O 10.2271 26.8165 15.234
H 10.6117 26.44 14.4424
H 9.78055 27.6072 14.9311
O 26.2644 9.3628 12.1103
H 25.8191 9.74096 12.8686
H 26.9432 10.0001 11.8882
O 2.95946 2.15264 31.3252
H 2.45801 2.96777 31.3435
H 3.85346 2.41589 31.5436
O 18.7572 27.9537 29.0729
H 18.8952 27.0169 29.2128
H 19.2019 28.3744 29.8087
O 21.391 28.6354 24.5367
H 21.2441 28.3735 25.4456
H 21.3914 29.5923 24.5598
O 10.3839 7.27622 11.2051
H 10.9224 7.86965 11.7287
H 11.0131 6.69437 10.7787
O 12.8343 16.9196 26.5693
H 13.6303 16.9864 27.0967
H 12.4752 16.0589 26.7848
O 24.1452 17.1816 16.5891
H 23.2612 17.3009 16.9362
H 24.2847 16.2348 16.6077
O 23.6963 3.69878 12.1191
H 23.0646 3.96659 12.7864
H 24.2017 4.49068 11.9355
O 28.5077 21.1354 26.653
H 28.0198 20.313 26.6115
H 28.3427 21.468 27.5353
O 32.5394 3.63861 4.3916
H 32.3586 3.36532 3.49223
H 31.9917 4.41274 4.52187
O 29.7797 23.2436 7.84231
H 29.7193 24.1989 7.8308
H 28.9965 22.9481 7.37814
O 13.9146 9.22865 17.7675
H 14.2875 10.1042 17.8704
H 13.082 9.37369 17.3181
O 9.09989 22.1 30.2381
H 9.60876 21.3071 30.0689
H 9.70516 22.6794 30.7008
O 12.9496 2.45654 29.8788
H 13.2844 2.66325 29.0062
H 13.1658 1.53282 30.0062
O 5.35361 20.8132 4.29521
H 4.70203 20.1644 4.02938
H 5.51701 21.3272 3.50438
O 3.16082 23.2712 24.5983
H 2.90091 22.9022 25.4424
H 3.86183 22.6965 24.2908
O 14.4645 14.0391 5.78422
H 14.2134 13.8237 4.88603
H 14.8114 13.2207 6.13922
O 8.7514 14.5457 7.56224
H 8.53938 15.2631 6.96503
H 8.54376 14.8879 8.43171
O 31.5788 1.96784 6.45693
H 31.9079 2.41993 7.23382
H 31.9622 2.44516 5.7211
O 23.1256 21.8392 12.3807
H 23.2459 22.0023 11.4452
H 22.8306 22.6782 12.7346
O 7.19641 28.3892 27.3076
H 7.81052 27.8781 26.7805
H 6.57011 27.7452 27.6382
O 27.2125 11.5481 23.6351
H 27.2431 11.6813 24.5825
H 27.7329 12.2662 23.2749
O 20.4092 21.8537 10.1939
H 20.1251 22.1127 11.0705
H 20.6513 20.9319 10.2827
O 20.779 11.888 10.9117
H 20.374 12.0009 10.0517
H 20.752 12.7598 11.306
O 11.3667 10.9289 19.6449
H 11.2855 10.5702 18.7612
H 10.9253 11.7772 19.6011
O 11.3093 16.38 21.7948
H 12.045 16.9684 21.964
H 10.8306 16.3499 22.6232
O 13.0238 8.36636 29.1525
H 13.5381 9.16489 29.0338
H 13.285 8.03836 30.013
O 18.7128 29.0667 2.45478
H 19.6295 28.9849 2.71792
H 18.7475 29.2325 1.5127
O 12.8367 1.12329 13.6422
H 13.2181 32.2177 13.5476
H 12.758 1.24966 14.5877
O 26.3768 2.63174 29.9465
H 25.7134 3.1484 29.4891
H 27.016 2.40878 29.2698
O 24.7998 21.8524 3.12383
H 25.0201 22.7166 3.47141
H 25.6454 21.4533 2.91916
O 28.6665 30.901 10.3014
H 28.5997 30.0057 9.9696
H 28.4881 31.4531 9.54007
O 29.1914 32.6972 6.03718
H 30.0193 1.18542 6.18995
H 28.739 1.26628 5.38603
O 19.653 14.4437 12.8213
H 20.3266 14.7332 12.206
H 18.8263 14.6807 12.401
O 28.4464 7.56058 12.5612
H 27.6798 8.09817 12.3623
H 29.0858 7.79631 11.889
O 13.4225 28.1828 16.8659
H 14.2116 28.6416 16.5778
H 13.2316 28.5519 17.7282
O 30.5969 22.4966 31.0358
H 31.1907 23.2446 30.9721
H 30.082 22.5296 30.2295
O 17.4692 2.67392 3.4846
H 18.2843 2.54926 2.99835
H 17.1276 1.78879 3.61129
O 25.5548 5.78996 24.8202
H 25.595 5.61083 23.8808
H 24.6201 5.87391 25.0087
O 32.34 14.9319 19.3554
H 1.1133 15.5147 19.1872
H 32.3463 14.3178 18.6211
O 30.2043 19.3778 29.4793
H 30.3484 18.72 28.799
H 29.4136 19.0852 29.9324
O 16.7172 29.2625 27.8958
H 16.0011 29.2131 28.5292
H 17.4273 28.7614 28.2969
O 21.2746 18.8549 2.59969
H 21.9037 19.4864 2.9485
H 21.6532 18.0002 2.80559
O 32.1851 18.4044 20.0238
H 31.6567 19.1103 19.6513
H 32.5076 18.7579 20.8528
O 14.8895 9.07783 14.2894
H 15.7934 9.20709 14.0023
H 14.4669 9.9236 14.1399
O 9.57391 24.256 27.7602
H 9.48164 24.3219 28.7106
H 8.75577 23.8549 27.4669
O 4.81237 7.15435 29.2096
H 5.00413 8.07086 29.0109
H 3.85798 7.09432 29.1677
O 15.8021 27.3824 13.5158
H 16.5779 27.4472 12.9589
H 15.7643 26.4599 13.7684
O 26.4413 3.58564 26.5685
H 25.6106 3.52685 27.0403
H 26.3761 4.3991 26.0682
O 15.6192 11.4016 1.88881
H 15.9019 10.5004 2.04424
H 16.1859 11.7125 1.18282
O 18.3737 16.8354 22.3267
H 17.9704 17.576 21.8738
H 19.2993 17.0702 22.3936
O 23.3612 11.1047 26.9675
H 22.7099 11.8013 26.8851
H 24.1636 11.5562 27.2293
O 18.6249 10.9269 26.2858
H 18.0204 10.6048 25.6172
H 18.3461 10.4915 27.0913
O 27.7789 31.3024 18.4299
H 27.9731 31.5902 17.5378
H 27.1496 30.5895 18.3204
O 3.97439 1.59347 21.8308
H 4.8694 1.26013 21.8947
H 3.8346 1.72749 20.8934
O 26.4792 15.4584 20.3185
H 25.9307 16.2341 20.435
H 25.8915 14.803 19.9428
O 13.107 24.6063 28.2038
H 13.959 24.8021 28.5937
H 12.9363 23.6958 28.4447
O 17.6026 31.6913 29.0408
H 18.1287 31.3982 29.7848
H 17.4476 30.8975 28.5289
O 6.25713 15.7908 15.132
H 6.98703 15.3048 15.5158
H 5.70487 15.1186 14.7327
O 2.16004 5.44839 2.13391
H 2.15195 4.57615 2.52806
H 2.46223 5.30377 1.23725
O 16.6385 7.31388 16.6788
H 17.0951 8.12961 16.4731
H 17.1464 6.63567 16.2335
O 4.18952 7.69571 10.5009
H 4.3683 8.59083 10.7891
H 3.32365 7.74251 10.0956
O 4.39996 25.2161 13.3483
H 4.18787 24.6472 14.0884
H 5.35324 25.2985 13.3745
O 8.06705 14.6952 16.7642
H 8.66389 13.9751 16.5606
H 8.09082 14.7641 17.7186
O 13.6848 14.3582 21.159
H 14.5497 14.4939 21.546
H 13.862 13.9434 20.3147
O 28.3496 10.8235 11.2158
H 28.8537 10.2821 10.6084
H 28.2955 11.6779 10.7876
O 3.63783 21.4295 13.6599
H 3.83542 21.7404 14.5433
H 3.06004 20.6781 13.7935
O 18.1754 6.47155 3.18887
H 17.6348 5.87714 3.70907
H 17.5527 7.08978 2.80648
O 31.1208 12.6116 26.0751
H 30.6438 13.2208 25.5115
H 30.4718 12.3178 26.7144
O 9.25196 4.73888 21.3847
H 9.58598 4.44525 22.2323
H 9.93907 5.3096 21.0406
O 15.8281 22.1831 7.94603
H 15.6109 22.0939 7.01807
H 14.9995 22.0345 8.40176
O 12.499 2.93568 3.15217
H 13.1263 3.13134 3.84812
H 11.6958 2.69485 3.61383
O 32.5179 8.91569 28.4799
H 0.877954 8.05534 28.7424
H 31.7071 8.72977 28.0063
O 23.9232 9.82555 10.1676
H 23.6104 9.98857 11.0574
H 24.1402 10.6933 9.82674
O 2.09273 29.4414 26.0898
H 2.21955 28.8288 25.3653
H 1.60761 30.1713 25.7048
O 32.1984 16.1838 4.79337
H 31.5278 16.8607 4.88456
H 31.7723 15.3816 5.09537
O 17.5941 5.74874 26.6612
H 16.8122 6.26886 26.8466
H 17.5685 5.60565 25.7151
O 23.399 21.9236 24.8895
H 23.3186 21.0338 24.5459
H 24.3275 22.0154 25.103
O 20.5745 16.5579 15.8941
H 19.6368 16.4986 16.0771
H 20.9857 16.5951 16.7577
O 11.2413 32.4228 27.3892
H 10.6931 31.8189 26.8882
H 11.6117 1.04477 26.732
O 3.3367 14.0909 25.1453
H 3.02712 14.0662 26.0507
H 2.53953 14.1684 24.6211
O 21.8095 1.32104 6.22981
H 22.623 1.80148 6.07609
H 22.0303 32.6547 6.91252
O 4.65792 23.7472 1.853
H 4.74975 23.0626 1.19035
H 3.9234 24.2797 1.54774
O 21.0059 0.885024 19.0049
H 20.4021 0.962176 18.2662
H 20.533 32.3228 19.647
O 4.44371 28.1994 4.97717
H 3.86871 28.6268 5.61194
H 5.14058 27.8124 5.50709
O 31.9236 22.6424 11.9903
H 31.9412 22.9073 12.91
H 31.5696 21.7532 12.0034
O 18.2322 14.1163 24.1179
H 17.5441 14.0447 24.7793
H 18.8788 14.7051 24.507
O 12.1505 23.4303 21.3377
H 12.4308 23.2006 20.4518
H 11.1959 23.4748 21.2835
O 3.38948 6.9434 32.1023
H 3.48725 6.98248 31.1509
H 2.54189 7.3539 32.2735
O 22.7186 27.588 22.1527
H 22.21 28.1517 22.7357
H 22.8197 28.1009 21.3509
O 12.5887 15.662 12.8103
H 12.7114 15.6971 13.7589
H 12.7305 16.5618 12.5165
O 10.0274 24.8157 17.3934
H 9.1221 24.5252 17.2824
H 10.1942 25.3761 16.6355
O 1.09624 12.1506 14.6059
H 32.6016 11.315 14.5374
H 1.90861 11.9387 15.0657
O 12.7808 29.5737 1.29494
H 13.1216 29.9142 32.4351
H 12.0228 29.0461 1.04313
O 25.5281 12.1481 9.28907
H 26.1817 12.0853 9.98551
H 25.8349 11.5401 8.61644
O 19.772 19.6194 29.2832
H 19.9154 20.3845 29.8402
H 19.5721 18.9111 29.8953
O 20.702 11.4559 17.5313
H 20.4535 11.9909 16.7775
H 21.5372 11.0611 17.2806
O 2.16091 4.13429 11.0779
H 1.89367 3.42555 10.4927
H 3.11582 4.15116 11.014
O 27.8428 18.3698 26.5952
H 26.9969 18.1486 26.9847
H 28.4368 17.6875 26.908
O 12.6569 28.5001 9.38085
H 12.688 27.7195 9.93394
H 11.8749 28.3813 8.84184
O 8.91257 21.6145 25.1815
H 8.57578 21.7843 24.3017
H 8.38324 22.171 25.7527
O 4.06296 25.7433 25.8185
H 3.41843 26.3351 25.4305
H 3.86315 24.888 25.4381
O 13.0896 8.10831 21.9374
H 13.2001 7.52586 21.1859
H 13.3583 8.96883 21.6157
O 15.3971 24.4421 22.5493
H 14.6166 24.9739 22.7049
H 16.0412 24.7721 23.1757
O 26.9796 4.41737 17.0915
H 26.2049 4.9365 17.3074
H 27.5944 5.04815 16.7168
O 27.8007 25.2867 11.3793
H 28.7474 25.1566 11.4346
H 27.4746 25.0487 12.2472
O 18.331 5.48968 12.9651
H 17.9543 6.13778 12.3699
H 17.7116 4.7601 12.9487
O 19.2829 3.77983 21.348
H 19.3157 4.44755 20.6629
H 19.1339 4.27166 22.1555
O 15.8351 1.14676 6.39103
H 15.7498 32.167 6.28059
H 16.625 1.25646 6.92048
O 29.2576 2.40475 25.1172
H 29.8693 1.82103 25.5659
H 29.6349 3.27763 25.2263
O 16.1899 6.77373 28.986
H 16.6574 7.60576 28.9121
H 15.3281 7.01216 29.3274
O 13.2613 6.77028 19.303
H 12.3271 6.56477 19.3388
H 13.3085 7.58665 18.8054
O 30.374 2.74403 15.1286
H 30.6338 3.14688 15.9571
H 31.1011 2.92802 14.5339
O 13.9393 26.336 25.5897
H 13.6174 27.2371 25.5684
H 14.8365 26.4093 25.9152
O 3.22966 29.723 18.6779
H 2.84208 29.5173 17.8272
H 3.82779 30.4488 18.5
O 10.3886 7.17839 15.7144
H 9.84394 6.87692 16.4415
H 10.6402 8.06966 15.9564
O 29.5272 8.37756 10.0489
H 29.6126 7.44562 9.84787
H 30.0265 8.81816 9.36129
O 11.8991 20.3234 20.2088
H 12.7118 20.5957 20.635
H 12.1273 19.5139 19.7518
O 4.74613 11.9927 28.389
H 4.12809 12.1045 27.6666
H 5.45898 12.6001 28.191
O 24.1474 3.62072 32.4004
H 23.1968 3.61819 32.2879
H 24.3979 4.53969 32.3055
O 27.0164 1.28773 23.6909
H 26.5362 1.90764 23.142
H 26.6129 32.4071 23.5049
O 1.87646 9.74303 12.122
H 2.64297 10.2568 11.8676
H 1.90931 8.96871 11.5602
O 21.1604 29.402 20.2188
H 20.7245 29.5547 19.3804
H 22.0473 29.7394 20.093
O 25.6878 27.694 21.6815
H 25.7076 27.0779 20.9492
H 24.942 28.2643 21.4953
O 21.0419 24.8575 7.39856
H 20.6109 24.3765 6.69208
H 21.04 25.7685 7.10458
O 16.6699 17.8869 18.3692
H 17.0487 18.2259 19.1802
H 17.3546 17.3299 17.9989
O 17.303 26.7164 2.39259
H 17.683 27.5806 2.55095
H 17.8178 26.3567 1.67018
O 7.97096 25.3337 4.6454
H 8.88237 25.5173 4.41768
H 7.97937 25.2195 5.59573
O 8.85672 15.7059 28.0591
H 8.90921 16.3897 28.7269
H 9.52267 15.0681 28.3159
O 6.49922 12.828 11.3822
H 6.00808 13.2305 12.0984
H 5.82704 12.4859 10.7928
O 21.707 7.86241 12.0478
H 20.7922 7.5806 12.0424
H 22.096 7.40049 12.7905
O 6.23536 11.546 4.26961
H 5.8591 10.7104 3.99309
H 7.13198 11.3319 4.52737
O 20.0775 19.2119 24.5289
H 20.3504 19.0181 23.6321
H 20.6928 18.7253 25.0774
O 24.2268 29.5531 5.69128
H 25.0936 29.3219 6.02523
H 23.8786 28.7335 5.34013
O 5.19766 26.8016 28.064
H 5.07261 26.2587 27.2857
H 5.39977 26.1782 28.7616
O 3.65481 31.4078 27.5032
H 3.4682 30.5153 27.2119
H 2.88942 31.9141 27.231
O 10.0154 4.09827 1.49207
H 9.22332 4.49363 1.12803
H 10.4925 4.83128 1.881
O 13.2735 31.2887 9.93581
H 13.0803 30.4297 9.56027
H 13.8773 31.6928 9.31258
O 24.4079 18.6436 31.7015
H 23.4803 18.8797 31.7007
H 24.6833 18.7551 32.6114
O 14.4793 4.94703 24.5701
H 14.9576 5.77566 24.599
H 14.4727 4.64202 25.4774
O 28.3904 2.87482 21.087
H 27.9914 3.7273 20.9131
H 27.6856 2.2448 20.9369
O 7.00296 25.8666 13.7746
H 7.50359 26.673 13.651
H 7.0164 25.7184 14.7202
O 4.57158 23.847 21.2114
H 4.8762 24.7002 21.5204
H 5.09571 23.6738 20.4294
O 30.0458 14.4593 23.9358
H 30.6078 15.2327 23.8887
H 29.3374 14.6395 23.3178
O 8.2462 10.5398 14.5139
H 8.91801 9.86606 14.4089
H 8.73567 11.3607 14.5662
O 25.7992 24.3673 22.2117
H 25.7808 24.8312 21.3747
H 26.7204 24.3777 22.4717
O 1.58794 18.8176 25.037
H 2.48357 19.1514 25.0884
H 1.29034 19.0627 24.1609
O 23.8106 29.5442 25.4867
H 23.1109 29.1054 25.0028
H 24.3555 29.9455 24.8097
O 2.30564 9.82756 6.45783
H 1.99817 10.7286 6.35863
H 3.23678 9.91291 6.6626
O 1.3099 7.7603 4.58831
H 1.90994 7.19643 4.10022
H 1.87976 8.38075 5.04275
O 24.0023 28.4093 13.4339
H 23.7114 27.6155 13.8828
H 24.5894 28.0947 12.7464
O 10.7956 26.8049 27.1874
H 10.4799 25.9307 27.4163
H 10.0324 27.2454 26.8137
O 15.5309 4.82033 2.3704
H 15.9454 4.88833 1.5103
H 16.1584 4.32967 2.90113
O 5.74572 7.77426 1.19082
H 5.00607 7.57302 32.5848
H 6.22082 8.46887 32.7019
O 20.8797 18.4568 21.9969
H 21.7503 18.7226 22.293
H 20.6567 19.0865 21.3113
O 29.8525 29.5803 16.8765
H 29.7933 29.7653 15.9392
H 30.6195 29.014 16.9613
O 11.0254 25.1922 24.7728
H 10.8347 26.1282 24.8345
H 10.1793 24.787 24.5826
O 2.43407 18.2358 6.18877
H 1.52872 18.025 5.96046
H 2.7462 18.7733 5.46083
O 24.6821 1.35811 8.45559
H 23.917 1.6654 8.94189
H 24.738 1.94417 7.70084
O 4.50846 32.3639 14.421
H 5.26752 32.1761 14.973
H 4.84237 0.989185 13.7474
O 5.10244 29.8563 10.1161
H 5.04183 30.0167 11.0578
H 4.32008 29.3452 9.90888
O 25.2092 17.6944 27.6047
H 24.8873 18.5828 27.7574
H 25.667 17.4628 28.4128
O 1.0141 6.76071 19.5669
H 1.90569 6.44863 19.4123
H 32.6467 6.19567 20.2632
O 6.10895 19.9973 13.6798
H 5.19099 20.2572 13.6021
H 6.56443 20.5264 13.025
O 28.0523 14.026 22.0568
H 27.5721 14.6531 21.5161
H 28.3693 13.3685 21.4375
O 9.10811 20.8443 15.5642
H 8.63004 21.4878 15.0412
H 8.73208 20.9206 16.4412
O 12.9228 9.60947 1.13364
H 13.6194 10.2623 1.06437
H 13.3216 8.79866 0.817686
O 17.8725 20.387 1.30618
H 18.5701 20.4343 1.95992
H 18.0386 19.5696 0.836719
O 11.041 27.489 32.7311
H 11.0515 26.8955 1.51479
H 10.4798 27.054 32.0892
O 21.8043 17.4671 18.1273
H 21.6714 16.9921 18.9476
H 21.7544 18.3906 18.3739
O 14.4524 3.08604 4.88872
H 14.924 2.43006 5.40204
H 14.3896 3.84491 5.46871
O 8.639 20.204 11.6424
H 9.25837 19.8003 12.2504
H 8.9702 21.0934 11.5177
O 10.1342 16.0336 3.16921
H 10.4542 15.1328 3.21617
H 10.8413 16.5594 3.54305