LAMMPS (22 Aug 2018)
Reading data file ...
  orthogonal box = (0 0 0) to (33.6962 33.6962 33.6962)
  4 by 4 by 8 MPI processor grid
  reading atoms ...
  3152 atoms
  scanning bonds ...
  2 = max bonds/atom
  scanning angles ...
  1 = max angles/atom
  reading bonds ...
  2000 bonds
  reading angles ...
  1000 angles
Finding 1-2 1-3 1-4 neighbors ...
  special bond factors lj:   0          0          0         
  special bond factors coul: 0          0          0         
  2 = max # of 1-2 neighbors
  1 = max # of 1-3 neighbors
  1 = max # of 1-4 neighbors
  2 = max # of special neighbors
Setting atom values ...
  1000 settings made for charge
Setting atom values ...
  2000 settings made for charge
Setting atom values ...
  76 settings made for charge
Setting atom values ...
  76 settings made for charge
1000 atoms in group wat
76 atoms in group Na
76 atoms in group Cl
PPPM initialization ...
  extracting TIP4P info from pair style
  using 12-bit tables for long-range coulomb (../kspace.cpp:321)
  G vector (1/distance) = 0.311414
  grid = 32 32 32
  stencil order = 5
  estimated absolute RMS force accuracy = 0.0032261
  estimated relative force accuracy = 9.71531e-06
  using double precision FFTs
  3d grid and FFT values/proc = 2475 256
Neighbor list info ...
  update every 1 steps, delay 0 steps, check yes
  max neighbors/atom: 2000, page size: 100000
  master list distance cutoff = 12.3092
  ghost atom cutoff = 12.3092
  binsize = 6.1546, bins = 6 6 6
  1 neighbor lists, perpetual/occasional/extra = 1 0 0
  (1) pair lj/cut/tip4p/long, perpetual
      attributes: half, newton on
      pair build: half/bin/newton
      stencil: half/bin/3d/newton
      bin: standard
Setting up cg style minimization ...
  Unit style    : real
  Current step  : 0
Per MPI rank memory allocation (min/avg/max) = 8.192 | 8.248 | 8.723 Mbytes
Step Temp E_pair E_mol TotEng Press 
       0            0    713.02913 3.2938476e-05    713.02916     22449.95 
    1000            0   -22977.705    376.01957   -22601.685   -4850.9217 
Loop time of 1.40381 on 128 procs for 1000 steps with 3152 atoms

99.0% CPU use with 128 MPI tasks x no OpenMP threads

Minimization stats:
  Stopping criterion = max iterations
  Energy initial, next-to-last, final = 
         713.029160003     -22601.5871855     -22601.6854384
  Force two-norm initial, final = 1835.69 20.4042
  Force max component initial, final = 225.604 4.36606
  Final line search alpha, max atom move = 0.00506656 0.0221209
  Iterations, force evaluations = 1000 1770

MPI task timing breakdown:
Section |  min time  |  avg time  |  max time  |%varavg| %total
---------------------------------------------------------------
Pair    | 0.1538     | 0.35149    | 0.55482    |  14.0 | 25.04
Bond    | 0.00095193 | 0.0016309  | 0.0022413  |   0.6 |  0.12
Kspace  | 0.59092    | 0.7914     | 0.98027    |   9.4 | 56.38
Neigh   | 0.0063883  | 0.0065125  | 0.0066491  |   0.1 |  0.46
Comm    | 0.15302    | 0.17276    | 0.19412    |   2.4 | 12.31
Output  | 8.8234e-05 | 9.0155e-05 | 9.3274e-05 |   0.0 |  0.01
Modify  | 0          | 0          | 0          |   0.0 |  0.00
Other   |            | 0.07993    |            |       |  5.69

Nlocal:    24.625 ave 37 max 9 min
Histogram: 2 4 5 17 11 33 25 17 13 1
Nghost:    2564.34 ave 2645 max 2508 min
Histogram: 6 19 36 23 12 1 3 8 11 9
Neighs:    7967.29 ave 12856 max 2526 min
Histogram: 2 5 11 15 29 19 20 16 7 4

Total # of neighbors = 1019813
Ave neighs/atom = 323.545
Ave special neighs/atom = 1.90355
Neighbor list builds = 19
Dangerous builds = 0
Finding SHAKE clusters ...
  0 = # of size 2 clusters
  0 = # of size 3 clusters
  0 = # of size 4 clusters
  1000 = # of frozen angles
PPPM initialization ...
  extracting TIP4P info from pair style
  using 12-bit tables for long-range coulomb (../kspace.cpp:321)
  G vector (1/distance) = 0.311414
  grid = 32 32 32
  stencil order = 5
  estimated absolute RMS force accuracy = 0.0032261
  estimated relative force accuracy = 9.71531e-06
  using double precision FFTs
  3d grid and FFT values/proc = 2475 256
Setting up Verlet run ...
  Unit style    : real
  Current step  : 0
  Time step     : 0.001
Per MPI rank memory allocation (min/avg/max) = 7.943 | 8.088 | 8.207 Mbytes
Step Temp E_pair E_mol TotEng Press Volume 
       0    436.54021   -22977.705            0    -20178.73    1481915.7    38259.716 
   10000    176.88479   -21357.824            0   -20223.687    1202.0313    38061.171 
Loop time of 8.91943 on 128 procs for 10000 steps with 3152 atoms

Performance: 0.097 ns/day, 247.762 hours/ns, 1121.148 timesteps/s
99.4% CPU use with 128 MPI tasks x no OpenMP threads

MPI task timing breakdown:
Section |  min time  |  avg time  |  max time  |%varavg| %total
---------------------------------------------------------------
Pair    | 0.71327    | 2.3425     | 3.7065     |  41.8 | 26.26
Bond    | 0.00095669 | 0.0011914  | 0.0020468  |   0.6 |  0.01
Kspace  | 3.0628     | 4.3944     | 5.9525     |  30.6 | 49.27
Neigh   | 0          | 0          | 0          |   0.0 |  0.00
Comm    | 0.80589    | 0.92762    | 1.0534     |   6.3 | 10.40
Output  | 7.9008e-05 | 8.0832e-05 | 8.3917e-05 |   0.0 |  0.00
Modify  | 1.0709     | 1.1441     | 1.1944     |   2.6 | 12.83
Other   |            | 0.1095     |            |       |  1.23

Nlocal:    24.625 ave 36 max 9 min
Histogram: 2 4 4 13 15 36 17 19 12 6
Nghost:    2563.81 ave 2648 max 2510 min
Histogram: 10 27 31 21 7 0 4 6 13 9
Neighs:    7968.02 ave 12409 max 2514 min
Histogram: 3 3 9 15 22 24 22 11 13 6

Total # of neighbors = 1019906
Ave neighs/atom = 323.574
Ave special neighs/atom = 1.90355
Neighbor list builds = 0
Dangerous builds = 0
PPPM initialization ...
  extracting TIP4P info from pair style
  using 12-bit tables for long-range coulomb (../kspace.cpp:321)
  G vector (1/distance) = 0.311538
  grid = 32 32 32
  stencil order = 5
  estimated absolute RMS force accuracy = 0.00320952
  estimated relative force accuracy = 9.66538e-06
  using double precision FFTs
  3d grid and FFT values/proc = 2475 256
Setting up Verlet run ...
  Unit style    : real
  Current step  : 10000
  Time step     : 0.01
Per MPI rank memory allocation (min/avg/max) = 7.943 | 8.088 | 8.207 Mbytes
Step Temp E_pair E_mol TotEng Press Volume 
   10000    176.88479   -21357.823            0   -20223.687   -97205.393    38061.171 
   20000    298.83501   -20094.712            0   -18178.665   -662.07914    38164.623 
Loop time of 9.42127 on 128 procs for 10000 steps with 3152 atoms

Performance: 0.917 ns/day, 26.170 hours/ns, 1061.428 timesteps/s
99.4% CPU use with 128 MPI tasks x no OpenMP threads

MPI task timing breakdown:
Section |  min time  |  avg time  |  max time  |%varavg| %total
---------------------------------------------------------------
Pair    | 0.71113    | 2.3301     | 3.5733     |  40.9 | 24.73
Bond    | 0.00095294 | 0.0011843  | 0.002002   |   0.5 |  0.01
Kspace  | 3.491      | 4.7851     | 6.3402     |  28.7 | 50.79
Neigh   | 0.0012023  | 0.0012496  | 0.0012887  |   0.0 |  0.01
Comm    | 0.82671    | 0.95093    | 1.0865     |   6.5 | 10.09
Output  | 9.9135e-05 | 0.0001011  | 0.00010481 |   0.0 |  0.00
Modify  | 1.1514     | 1.2258     | 1.2818     |   2.5 | 13.01
Other   |            | 0.1268     |            |       |  1.35

Nlocal:    24.625 ave 37 max 8 min
Histogram: 1 1 9 10 24 22 29 20 10 2
Nghost:    2555.02 ave 2624 max 2496 min
Histogram: 3 14 20 37 21 1 0 2 10 20
Neighs:    7929.57 ave 12405 max 2261 min
Histogram: 1 6 8 16 16 29 19 15 13 5

Total # of neighbors = 1014985
Ave neighs/atom = 322.013
Ave special neighs/atom = 1.90355
Neighbor list builds = 4
Dangerous builds = 0
PPPM initialization ...
  extracting TIP4P info from pair style
  using 12-bit tables for long-range coulomb (../kspace.cpp:321)
  G vector (1/distance) = 0.311473
  grid = 32 32 32
  stencil order = 5
  estimated absolute RMS force accuracy = 0.00321816
  estimated relative force accuracy = 9.69139e-06
  using double precision FFTs
  3d grid and FFT values/proc = 2475 256
Setting up Verlet run ...
  Unit style    : real
  Current step  : 20000
  Time step     : 0.1
Per MPI rank memory allocation (min/avg/max) = 7.943 | 8.099 | 8.207 Mbytes
Step Temp E_pair E_mol TotEng Press Volume 
   20000    298.83501   -20094.712            0   -18178.665   -18342.576    38164.623 
   30000    299.76268   -20317.395            0     -18395.4   -745.98922     34005.18 
Loop time of 9.37464 on 128 procs for 10000 steps with 3152 atoms

Performance: 9.216 ns/day, 2.604 hours/ns, 1066.707 timesteps/s
99.4% CPU use with 128 MPI tasks x no OpenMP threads

MPI task timing breakdown:
Section |  min time  |  avg time  |  max time  |%varavg| %total
---------------------------------------------------------------
Pair    | 1.3434     | 2.5977     | 3.6464     |  30.8 | 27.71
Bond    | 0.00096898 | 0.0011795  | 0.0017718  |   0.4 |  0.01
Kspace  | 3.369      | 4.4385     | 5.6305     |  23.5 | 47.35
Neigh   | 0.023412   | 0.023702   | 0.023969   |   0.1 |  0.25
Comm    | 0.90437    | 1.0134     | 1.1252     |   5.2 | 10.81
Output  | 8.7674e-05 | 9.0037e-05 | 9.3715e-05 |   0.0 |  0.00
Modify  | 1.0973     | 1.1806     | 1.2358     |   2.9 | 12.59
Other   |            | 0.1195     |            |       |  1.27

Nlocal:    24.625 ave 33 max 17 min
Histogram: 7 10 9 19 20 24 20 8 7 4
Nghost:    2819.74 ave 2840 max 2791 min
Histogram: 3 2 8 19 11 21 19 16 20 9
Neighs:    8908.91 ave 12718 max 5383 min
Histogram: 4 7 15 13 32 21 16 14 5 1

Total # of neighbors = 1140341
Ave neighs/atom = 361.783
Ave special neighs/atom = 1.90355
Neighbor list builds = 52
Dangerous builds = 0
PPPM initialization ...
  extracting TIP4P info from pair style
  using 12-bit tables for long-range coulomb (../kspace.cpp:321)
  G vector (1/distance) = 0.309602
  grid = 30 30 30
  stencil order = 5
  estimated absolute RMS force accuracy = 0.00383101
  estimated relative force accuracy = 1.1537e-05
  using double precision FFTs
  3d grid and FFT values/proc = 2475 256
Setting up Verlet run ...
  Unit style    : real
  Current step  : 30000
  Time step     : 0.2
Per MPI rank memory allocation (min/avg/max) = 7.949 | 8.161 | 8.216 Mbytes
Step Temp E_pair E_mol TotEng Press Volume 
   30000    299.76268   -20317.401            0   -18395.406   -2484.5514     34005.18 
   40000    297.85821   -20495.168            0   -18585.384   -257.70144    33290.557 
Loop time of 9.31857 on 128 procs for 10000 steps with 3152 atoms

Performance: 18.544 ns/day, 1.294 hours/ns, 1073.125 timesteps/s
99.5% CPU use with 128 MPI tasks x no OpenMP threads

MPI task timing breakdown:
Section |  min time  |  avg time  |  max time  |%varavg| %total
---------------------------------------------------------------
Pair    | 1.7478     | 2.7447     | 3.571      |  23.3 | 29.45
Bond    | 0.00098558 | 0.0012015  | 0.0019918  |   0.5 |  0.01
Kspace  | 3.3108     | 4.1349     | 5.1355     |  18.8 | 44.37
Neigh   | 0.030675   | 0.031309   | 0.031985   |   0.3 |  0.34
Comm    | 0.97937    | 1.0903     | 1.2167     |   5.3 | 11.70
Output  | 7.4328e-05 | 7.7193e-05 | 8.019e-05  |   0.0 |  0.00
Modify  | 0.96827    | 1.1708     | 1.2629     |   6.4 | 12.56
Other   |            | 0.1453     |            |       |  1.56

Nlocal:    24.625 ave 31 max 16 min
Histogram: 4 0 6 9 26 17 28 17 15 6
Nghost:    2874.77 ave 2902 max 2849 min
Histogram: 4 11 13 21 24 13 19 10 8 5
Neighs:    9116.42 ave 12324 max 5535 min
Histogram: 4 3 12 14 22 26 21 13 7 6

Total # of neighbors = 1166902
Ave neighs/atom = 370.21
Ave special neighs/atom = 1.90355
Neighbor list builds = 99
Dangerous builds = 0
PPPM initialization ...
  extracting TIP4P info from pair style
  using 12-bit tables for long-range coulomb (../kspace.cpp:321)
  G vector (1/distance) = 0.310114
  grid = 30 30 30
  stencil order = 5
  estimated absolute RMS force accuracy = 0.00375101
  estimated relative force accuracy = 1.1296e-05
  using double precision FFTs
  3d grid and FFT values/proc = 2475 256
Setting up Verlet run ...
  Unit style    : real
  Current step  : 40000
  Time step     : 0.5
Per MPI rank memory allocation (min/avg/max) = 7.952 | 8.192 | 8.217 Mbytes
Step Temp E_pair E_mol TotEng Press Volume 
   40000    297.85821   -20495.168            0   -18585.384   -28.060951    33290.557 
   50000    298.40667    -20687.09            0   -18773.789   -209.57798    32689.614 
Loop time of 10.1527 on 128 procs for 10000 steps with 3152 atoms

Performance: 42.550 ns/day, 0.564 hours/ns, 984.955 timesteps/s
99.4% CPU use with 128 MPI tasks x no OpenMP threads

MPI task timing breakdown:
Section |  min time  |  avg time  |  max time  |%varavg| %total
---------------------------------------------------------------
Pair    | 2.0596     | 2.8251     | 3.5421     |  20.2 | 27.83
Bond    | 0.00097639 | 0.0012087  | 0.0019622  |   0.5 |  0.01
Kspace  | 3.916      | 4.6156     | 5.3806     |  15.5 | 45.46
Neigh   | 0.094661   | 0.097006   | 0.099153   |   0.5 |  0.96
Comm    | 1.0536     | 1.1865     | 1.3207     |   5.9 | 11.69
Output  | 8.5359e-05 | 8.7958e-05 | 9.1671e-05 |   0.0 |  0.00
Modify  | 1.0715     | 1.2731     | 1.369      |   6.3 | 12.54
Other   |            | 0.1542     |            |       |  1.52

Nlocal:    24.625 ave 34 max 15 min
Histogram: 1 1 12 20 32 24 24 11 2 1
Nghost:    2931.94 ave 2961 max 2895 min
Histogram: 2 5 6 12 23 28 20 16 8 8
Neighs:    9279.55 ave 12753 max 5786 min
Histogram: 5 4 13 18 23 22 25 8 5 5

Total # of neighbors = 1187782
Ave neighs/atom = 376.834
Ave special neighs/atom = 1.90355
Neighbor list builds = 242
Dangerous builds = 0
PPPM initialization ...
  extracting TIP4P info from pair style
  using 12-bit tables for long-range coulomb (../kspace.cpp:321)
  G vector (1/distance) = 0.310552
  grid = 30 30 30
  stencil order = 5
  estimated absolute RMS force accuracy = 0.00368375
  estimated relative force accuracy = 1.10935e-05
  using double precision FFTs
  3d grid and FFT values/proc = 2475 256
Setting up Verlet run ...
  Unit style    : real
  Current step  : 0
  Time step     : 2
Per MPI rank memory allocation (min/avg/max) = 7.965 | 8.206 | 8.218 Mbytes
Step Temp E_pair E_mol TotEng Press Volume 
       0    298.40667    -20687.09            0   -18773.789   -248.98951    32689.614 
   10000    291.43018   -20581.846            0   -18713.277    10.411942    32913.259 
   20000    298.49211    -20645.96            0   -18732.112   -306.52334    32972.068 
   30000    290.46758   -20608.962            0   -18746.565    577.84964    32845.379 
   40000    300.59805   -20636.667            0   -18709.316    466.33683    32697.088 
   50000    299.96299   -20613.973            0   -18690.694   -721.13473     32639.08 
   60000    302.69283   -20557.263            0   -18616.481   -223.75886    32427.812 
   70000    300.01739   -20596.616            0   -18672.987   -474.39915     32811.71 
   80000     296.0796   -20655.845            0   -18757.465    267.03399    32404.398 
   90000    300.77204   -20649.026            0   -18720.559    221.26714    32538.564 
  100000    294.41812   -20687.663            0   -18799.936   -719.52191    32835.925 
  110000    294.43331    -20622.17            0   -18734.345    332.11349    32389.275 
  120000     297.1333   -20669.738            0   -18764.602    668.05737    32436.077 
  130000    308.88204   -20646.544            0   -18666.078    14.912677    32896.992 
  140000    295.29075   -20526.557            0   -18633.235    566.76084    32810.328 
  150000    285.70584   -20630.835            0   -18798.968   -134.26202    32598.052 
  160000    291.34812    -20657.34            0   -18789.297   -293.50393    32699.078 
  170000     299.7753   -20725.128            0   -18803.052    285.39247    32689.436 
  180000    301.35036   -20620.508            0   -18688.333     93.31079    32841.149 
  190000    302.08553   -20744.026            0   -18807.137   -22.780532    32243.833 
  200000    297.01104   -20624.276            0   -18719.924   -53.317396    32539.465 
  210000    304.45095   -20660.986            0   -18708.931   -519.48319    32999.727 
  220000    297.16393   -20607.066            0   -18701.733    587.75569    32481.875 
  230000    292.20657   -20686.642            0   -18813.095   -483.93878     32904.76 
  240000    287.33378   -20674.738            0   -18832.434    297.88169    32480.248 
  250000    291.89174   -20627.625            0   -18756.096   -216.56941    32552.115 
  260000    294.52747   -20618.294            0   -18729.866    533.42261    32266.216 
  270000    297.01351   -20637.384            0   -18733.016    240.22861     32415.53 
  280000    295.97186   -20601.554            0   -18703.865   -245.03063    32538.002 
  290000    296.74876   -20608.469            0   -18705.798   -142.12128     32960.88 
  300000    299.66783    -20721.62            0   -18800.233   -931.50388    32963.682 
  310000    288.96013   -20802.253            0   -18949.521    6.0599772    32300.416 
  320000    297.31283   -20711.211            0   -18804.924   -381.36275    32696.831 
  330000    293.98164   -20590.885            0   -18705.956    904.16239    32257.268 
  340000    296.46281   -20571.413            0   -18670.576    474.47564    32356.607 
  350000    303.98114   -20681.227            0   -18732.185    103.29821    32405.151 
  360000    296.83417   -20720.488            0   -18817.269   -505.83528    32732.369 
  370000    294.04701   -20628.854            0   -18743.506   -69.603923    32688.405 
  380000    308.14215   -20672.837            0   -18697.116    117.44276    32503.505 
  390000    296.50868    -20678.98            0   -18777.848    321.37118    32444.788 
  400000    297.25718   -20638.626            0   -18732.696   -1140.7098    33191.494 
  410000    299.46458   -20657.035            0   -18736.951   -385.39469    32723.018 
  420000    297.01764   -20560.357            0   -18655.963   -272.50744    32896.498 
  430000    291.72998   -20614.617            0   -18744.125    74.712281    32833.138 
  440000    294.56033   -20582.584            0   -18693.945    -422.5993    32960.035 
  450000    292.57559   -20703.286            0   -18827.373   -209.97562     32455.32 
  460000    294.39535   -20632.522            0   -18744.941    671.12404    32455.214 
  470000    294.72516    -20597.64            0   -18707.944    805.78604    32351.145 
  480000    300.33793   -20552.714            0   -18627.031    421.62644    32511.762 
  490000    296.77424   -20615.705            0   -18712.871    615.55306    32601.207 
  500000     294.4603   -20631.178            0    -18743.18    73.970953    32631.089 
  510000    293.90221   -20551.598            0   -18667.179   -105.16015    32432.826 
  520000    297.80449   -20655.467            0   -18746.028    3.3715347    32505.616 
  530000    304.86462   -20601.463            0   -18646.756   -61.402224    32863.246 
  540000    297.91831   -20661.035            0   -18750.866   -817.73893    32400.494 
  550000    285.95659   -20628.329            0   -18794.854   -262.64676    32685.873 
  560000    308.34497   -20620.479            0   -18643.456    309.10388    32750.709 
  570000    298.15193   -20694.181            0   -18782.514   -109.72298     32457.67 
  580000    299.84302   -20660.746            0   -18738.236     136.8142    32290.286 
  590000     296.3418   -20640.635            0   -18740.573   -506.63765    32435.843 
  600000    298.04183   -20635.012            0    -18724.05     770.4604    32681.349 
  610000     302.4089   -20518.315            0   -18579.353   -660.75539    32902.972 
  620000    313.72336   -20655.085            0   -18643.578    458.23831    32594.531 
  630000    301.14909   -20552.113            0   -18621.229    434.06026    32418.895 
  640000    299.86395   -20643.929            0   -18721.285    610.85988    32852.895 
  650000    304.97361   -20716.527            0   -18761.121    -283.5363    32716.243 
  660000    287.13593   -20687.238            0   -18846.202   -300.90468    32767.421 
  670000    300.06709   -20598.793            0   -18674.846    25.206295    32522.351 
  680000    298.19288   -20602.945            0   -18691.015    579.91222     32424.86 
  690000    294.41281   -20716.756            0   -18829.063   -582.28892    32742.445 
  700000     302.3724   -20611.863            0   -18673.135   -32.465772    32676.109 
  710000    296.18408   -20610.818            0   -18711.768   -1004.7463    33004.645 
  720000    300.37334   -20652.747            0   -18726.836    1229.1135    32099.456 
  730000    291.59519   -20609.177            0   -18739.549    1313.6659    32452.413 
  740000    293.00224   -20660.444            0   -18781.795    42.430641    32240.377 
  750000    298.44064   -20699.427            0   -18785.908    232.14585    32365.678 
  760000     300.4798   -20628.458            0   -18701.865   -1549.7918    33008.005 
  770000    298.22688   -20660.692            0   -18748.544   -605.20799     33173.41 
  780000    306.21852   -20585.063            0   -18621.675    430.49001    32669.724 
  790000    307.47377   -20581.039            0   -18609.602   -1117.4686    33180.233 
  800000    291.63168   -20639.928            0   -18770.066    128.24865    32682.097 
  810000    286.90577   -20623.198            0   -18783.638    416.92628    32694.717 
  820000    298.85959   -20531.592            0   -18615.387   -563.99794    33321.996 
  830000     296.8366   -20538.886            0   -18635.652   -130.96047    32600.204 
  840000    302.57856   -20516.314            0   -18576.265    139.37408     32429.25 
  850000    287.31184    -20636.37            0   -18794.206    16.723146    32595.771 
  860000    298.64317   -20732.749            0   -18817.932    162.71545    32456.547 
  870000    300.89073   -20591.173            0   -18661.946    101.42397    32684.203 
  880000    292.92865   -20620.686            0   -18742.509    393.34134    32500.453 
  890000    295.29708   -20703.181            0   -18809.818    55.545872    32528.953 
  900000    298.63918   -20591.407            0   -18676.616   -504.06792    32901.418 
  910000    299.64593   -20569.753            0   -18648.507    316.20758    32792.182 
  920000     301.3531   -20676.079            0   -18743.886    118.18928    32840.504 
  930000    297.12348     -20590.8            0   -18685.727   -475.23875    32674.684 
  940000     297.7743   -20667.009            0   -18757.763   -138.59067    32942.444 
  950000    292.75347    -20717.43            0   -18840.376    190.60103    32416.431 
  960000    298.68354   -20596.524            0   -18681.448    168.92255    32832.977 
  970000    294.92351   -20551.913            0   -18660.945    -84.33228    32549.286 
  980000    300.72977   -20651.242            0   -18723.047    356.68151    32309.838 
  990000    286.48635   -20701.792            0   -18864.921      759.997    32307.309 
 1000000    307.30032   -20617.378            0   -18647.054    348.12806    32523.054 
 1010000    293.92299   -20661.116            0   -18776.564   -232.87586    32651.262 
 1020000    289.69935   -20689.324            0   -18831.852   -63.969859    32534.924 
 1030000    303.35401   -20561.755            0   -18616.734   -563.90969    32804.308 
 1040000    301.71044   -20715.262            0   -18780.778    781.79348    32344.736 
 1050000    297.19688   -20740.484            0    -18834.94    631.16998    32405.117 
 1060000    296.83277   -20657.078            0   -18753.869    530.61213    32456.093 
 1070000    306.02424   -20563.293            0   -18601.151   -13.684144    32960.758 
 1080000      290.539   -20741.627            0   -18878.771    80.283295    32314.273 
 1090000    294.23633   -20601.126            0   -18714.564    290.07956     32381.59 
 1100000    299.62787   -20507.108            0   -18585.977   -1014.9041    33236.099 
 1110000    294.83658    -20630.12            0    -18739.71   -231.93001     32927.86 
 1120000    298.80091   -20598.017            0   -18682.188   -702.44951    32870.672 
 1130000    292.12892   -20725.517            0   -18852.468   -479.82975    32515.477 
 1140000    304.62447   -20613.249            0   -18660.082    883.13662    32596.436 
 1150000    304.34071     -20527.7            0   -18576.351    202.18416     32428.37 
 1160000    294.45076   -20647.338            0   -18759.402   -143.06971    32816.401 
 1170000     288.9892   -20710.387            0   -18857.469    -118.6294    32709.225 
 1180000    303.28668     -20585.8            0    -18641.21    1.0415849    32749.593 
 1190000    297.47082    -20618.38            0    -18711.08   -666.86679    32705.757 
 1200000    288.27164   -20637.215            0   -18788.897   -257.49969    33016.567 
 1210000    293.26392   -20487.596            0   -18607.269   -503.57054    33015.436 
 1220000    289.98693   -20517.191            0   -18657.875    405.44902    32236.998 
 1230000    296.52707   -20729.252            0   -18828.002    835.71187    32530.116 
 1240000    306.14061   -20648.276            0   -18685.387   -268.97414    32735.857 
 1250000    301.79807   -20672.706            0   -18737.661    820.43794    32323.324 
 1260000    297.49096   -20559.909            0    -18652.48   -80.656434    33344.022 
 1270000     299.8834    -20650.22            0    -18727.45   -698.22486    32835.471 
 1280000    295.19765   -20584.709            0   -18691.984   -267.17531    32379.608 
 1290000    300.59528   -20611.868            0   -18684.535    289.46239    33002.607 
 1300000    298.06816   -20576.469            0   -18665.339    166.56808     32615.39 
 1310000    291.23814   -20609.411            0   -18742.073    558.99691     32482.12 
 1320000    297.49469   -20552.149            0   -18644.695   -696.29189    33134.669 
 1330000    303.07056   -20557.902            0   -18614.698    711.07753    32244.126 
 1340000    293.14846   -20557.832            0   -18678.246   -997.98297    33074.594 
 1350000    292.78667   -20650.917            0    -18773.65   -266.60793     32641.58 
 1360000    286.25948   -20599.903            0   -18764.486   -167.36924     32601.96 
 1370000    298.06819   -20669.685            0   -18758.554   -1191.2953    32600.777 
 1380000    298.51383   -20643.849            0   -18729.861    5.5396749    32500.162 
 1390000    298.00135   -20651.215            0   -18740.513   -376.33045    32802.057 
 1400000    296.58298   -20507.555            0   -18605.947    726.58896    32677.651 
 1410000    291.56196   -20604.519            0   -18735.105    139.58839    32295.734 
 1420000    302.37348   -20611.839            0   -18673.105   -129.80323     32789.07 
 1430000    295.68147   -20673.006            0   -18777.179    144.86906    33012.036 
 1440000    306.72789   -20659.087            0   -18692.433    50.691541    32936.518 
 1450000    291.83818     -20599.7            0   -18728.515    -233.3331    32666.816 
 1460000    297.47825   -20622.578            0    -18715.23    598.36909    32371.564 
 1470000    297.22247    -20657.13            0   -18751.422   -161.49433    32668.687 
 1480000    294.21806   -20683.389            0   -18796.945    482.56874    32232.862 
 1490000    294.05095   -20666.091            0   -18780.718    122.57689    32560.588 
 1500000    302.89874   -20678.147            0   -18736.045    804.04939    32537.799 
 1510000    293.25803   -20655.493            0   -18775.204    187.16048    32849.667 
 1520000    292.98491   -20580.776            0   -18702.238    450.30307    32837.985 
 1530000    302.08891   -20635.645            0   -18698.735   -546.16887    32717.347 
 1540000    295.98956   -20545.299            0   -18647.496   -433.46441    32497.124 
 1550000    291.54178   -20608.866            0   -18739.581     80.70296    32561.244 
 1560000    292.34425   -20677.516            0   -18803.086    -407.4256    32751.878 
 1570000    301.08863   -20578.945            0   -18648.448   -411.88466    32748.976 
 1580000    305.43165   -20634.313            0    -18675.97   -1096.0279    32397.657 
 1590000    288.58788   -20652.472            0   -18802.126   -294.87899    32916.732 
 1600000    296.61873    -20599.37            0   -18697.533    769.38475    32541.744 
 1610000    301.92221   -20584.917            0   -18649.075   -202.66155    32723.056 
 1620000    304.95932   -20645.736            0   -18690.422    951.93456    32672.277 
 1630000    293.10542   -20565.425            0   -18686.115     51.84474    32596.243 
 1640000    303.95423   -20648.208            0   -18699.338    204.08573    32435.462 
 1650000    294.63904    -20600.46            0   -18711.317    329.21879     32430.51 
 1660000    307.27064   -20625.288            0   -18655.154    222.51246    32210.527 
 1670000    297.42286   -20689.656            0   -18782.663    584.46487    32295.267 
 1680000    299.76775   -20602.816            0   -18680.788    515.98574     32689.63 
 1690000    298.15462   -20573.368            0   -18661.683    280.49141    32774.272 
 1700000    298.12951   -20608.888            0   -18697.364    560.51474    32502.398 
 1710000    298.19372   -20681.438            0   -18769.503    773.73382    32487.147 
 1720000    295.50833   -20662.961            0   -18768.243    -558.3713    32628.273 
 1730000    296.93014   -20808.664            0   -18904.831   -583.54339    32297.407 
 1740000    298.68746    -20586.05            0   -18670.949    723.36585    32681.981 
 1750000    295.55542   -20624.305            0   -18729.286   -403.38142    32528.395 
 1760000    301.21241   -20714.441            0   -18783.151    54.281279     32799.13 
 1770000    301.21686   -20617.446            0   -18686.127   -144.26891    33001.234 
 1780000    292.80239   -20754.878            0    -18877.51   -1135.9879    32684.609 
 1790000    299.99297   -20617.113            0   -18693.641   -29.037132    32520.615 
 1800000    303.63062   -20616.786            0   -18669.991    84.949756    32880.258 
 1810000     310.8059    -20559.93            0   -18567.129    50.932932      32920.3 
 1820000    288.75659   -20700.787            0   -18849.359    1347.7188    32403.427 
 1830000    301.78865    -20659.88            0   -18724.895    473.79387    32189.479 
 1840000    306.94656   -20611.694            0   -18643.638     62.47337    32503.353 
 1850000    301.89515   -20598.719            0   -18663.051    54.460089    32884.418 
 1860000    305.07167   -20757.621            0   -18801.586    834.63558    32301.279 
 1870000    295.44567   -20572.448            0   -18678.132   -169.09513    32421.264 
 1880000    305.26638   -20575.311            0   -18618.028   -212.48292    32591.226 
 1890000    297.99192   -20655.701            0   -18745.059   -598.95426    32903.041 
 1900000    298.17006   -20602.912            0   -18691.128    227.29686    32644.834 
 1910000     297.9126   -20628.842            0   -18718.709   -556.44257    32860.219 
 1920000    294.52358   -20541.498            0   -18653.095    -199.2415    32930.445 
 1930000     299.2691   -20642.868            0   -18724.038    795.58592     32748.36 
 1940000    300.19816   -20562.312            0   -18637.524    241.21408    32827.038 
 1950000    297.12678   -20654.411            0   -18749.317    1517.2109    32607.749 
 1960000    305.47686   -20585.395            0   -18626.762   -205.95759     33014.06 
 1970000    300.65431   -20604.321            0   -18676.609    616.70031    32833.576 
 1980000    303.54188   -20690.925            0   -18744.699    473.67111    32430.721 
 1990000    304.55874    -20648.45            0   -18695.704   -260.88336    32851.716 
 2000000    302.07529   -20566.108            0   -18629.285    147.30701    32352.245 
 2010000    291.76402   -20602.291            0   -18731.581   -838.19888    32726.704 
 2020000    290.62511   -20684.835            0   -18821.428   -1069.0288    32422.153 
 2030000    292.82841   -20689.334            0     -18811.8    433.10222    32415.315 
 2040000    291.61506   -20579.711            0   -18709.956    596.94194    32847.116 
 2050000    299.34164   -20584.145            0    -18664.85    451.73584     32419.01 
 2060000    298.65578   -20649.504            0   -18734.606   -85.738837    32882.037 
 2070000    296.91074   -20595.295            0   -18691.586   -186.03999    32895.724 
 2080000    306.27523   -20664.879            0   -18701.127    253.02694    32935.462 
 2090000    303.28647   -20582.892            0   -18638.303    53.369175    32460.606 
 2100000    292.97943   -20673.191            0   -18794.688    199.11513    32587.988 
 2110000    295.67823   -20559.504            0   -18663.697   -31.844791    32930.977 
 2120000    292.86732   -20699.011            0   -18821.227   -66.201758    32478.552 
 2130000    306.28592   -20634.848            0   -18671.027   -568.67623    33017.104 
 2140000    291.91517   -20691.661            0   -18819.982    246.99677    32360.774 
 2150000    288.55431   -20550.319            0   -18700.189    -417.2751    32583.366 
 2160000    294.72601    -20711.17            0   -18821.468    525.51061    32703.135 
 2170000    291.09798    -20672.99            0    -18806.55      1074.06    32544.432 
 2180000     293.7823   -20610.553            0   -18726.902   -593.68553    32552.078 
 2190000    307.30651   -20685.208            0   -18714.844   -45.360422    32230.993 
 2200000    291.86391   -20669.684            0   -18798.333   -56.770273    32604.103 
 2210000    300.24418   -20671.882            0     -18746.8   -420.78555    32518.921 
 2220000    308.58215   -20637.407            0   -18658.864   -729.00761    33241.262 
 2230000    297.27485   -20665.468            0   -18759.424     610.9758    32428.508 
 2240000    307.96133   -20661.759            0   -18687.197   -98.311299    32767.292 
 2250000    296.26168   -20560.368            0   -18660.821   -278.30699    33032.834 
 2260000    306.65471    -20678.15            0   -18711.965    706.51616    32218.252 
 2270000    300.67843    -20614.17            0   -18686.303    -150.6022    32170.418 
 2280000    296.66758   -20588.881            0   -18686.731   -104.74292    32852.529 
 2290000    302.10695   -20578.379            0   -18641.353     759.0351    32503.377 
 2300000    286.90698   -20651.734            0   -18812.166   -142.37085    32929.866 
 2310000    303.49902   -20577.705            0   -18631.753     35.70323    33019.795 
 2320000    288.01717   -20669.041            0   -18822.355    705.16104    32134.004 
 2330000    306.14768   -20572.637            0   -18609.703    34.374309    32822.559 
 2340000     299.0632   -20648.395            0   -18730.885   -74.654751    32554.461 
 2350000    296.96982   -20530.038            0    -18625.95   -618.70687    33280.966 
 2360000    294.49128   -20642.543            0   -18754.347   -333.67017    32890.738 
 2370000    295.37375   -20616.669            0   -18722.815     966.5727    32545.296 
 2380000    296.31393    -20699.05            0   -18799.168   -714.93097    32636.951 
 2390000    294.30782   -20595.952            0   -18708.932    432.77138    32975.581 
 2400000    299.33218   -20655.354            0   -18736.119    901.10042     32372.43 
 2410000    299.80487   -20644.643            0   -18722.377   -28.306335     33018.62 
 2420000    299.52635   -20701.533            0   -18781.053   -10.991145    32424.883 
 2430000    289.87542   -20635.523            0   -18776.922   -220.03698    32580.056 
 2440000    304.67351   -20639.386            0   -18685.904    29.125004    33070.649 
 2450000    297.62755    -20606.64            0   -18698.335     705.6908    32389.361 
 2460000    294.77411   -20724.807            0   -18834.797    705.06033    32165.752 
 2470000    297.97671   -20645.992            0   -18735.448    -460.4518    32202.225 
 2480000    295.21624    -20686.13            0   -18793.285    608.22789    32678.212 
 2490000    290.62913   -20610.647            0   -18747.214     496.8854    32430.042 
 2500000    296.07173   -20662.751            0   -18764.421   -11.766114    32776.806 
 2510000    300.19271   -20589.953            0   -18665.201    612.64425    32282.942 
 2520000    300.77294   -20599.261            0   -18670.789    416.11771    32666.102 
 2530000    298.58275   -20599.617            0   -18685.188    54.954611    32573.538 
 2540000    301.86108   -20500.995            0   -18565.546   -488.79536    32487.134 
 2550000    294.54618   -20722.076            0   -18833.528   -904.97997    32606.228 
 2560000    301.55964   -20634.981            0   -18701.464    399.45106    32389.272 
 2570000    299.87581   -20589.473            0   -18666.753    -231.9572    32852.622 
 2580000    301.91732   -20599.542            0   -18663.732     1119.589     32517.09 
 2590000     305.4299   -20715.644            0   -18757.312   -254.36512    32679.842 
 2600000    300.99652   -20688.646            0    -18758.74    790.55791    32341.824 
 2610000    303.97181   -20687.891            0   -18738.908   -556.26913    32650.809 
 2620000    293.56468   -20603.398            0   -18721.143   -466.57892    32880.663 
 2630000    289.26389   -20609.605            0   -18754.925   -142.63345    32652.241 
 2640000     297.6808   -20574.469            0   -18665.822   -5.2338178    32759.207 
 2650000    297.22545   -20616.673            0   -18710.945    202.03036    32872.623 
 2660000    297.73868   -20656.116            0   -18747.098   -233.89898    32547.186 
 2670000    306.18405   -20670.328            0   -18707.161   -590.64937    32414.276 
 2680000    295.39905   -20509.947            0   -18615.931   -277.81759    32765.183 
 2690000    290.38661   -20644.758            0    -18782.88   -568.02403    32867.588 
 2700000    301.00235   -20682.649            0   -18752.706    451.96643    32607.363 
 2710000    295.85665   -20656.238            0   -18759.287   -824.50529     32920.39 
 2720000    287.49209   -20652.752            0   -18809.433    89.360018    33104.569 
 2730000    294.65587   -20670.138            0   -18780.886    596.28909    32268.479 
 2740000    292.78541   -20651.811            0   -18774.552    50.803898    32507.975 
 2750000    302.42668   -20591.046            0    -18651.97   -519.37506    33156.141 
 2760000    302.02977     -20628.4            0   -18691.869   -395.59091    32738.994 
 2770000     293.5985   -20616.976            0   -18734.503   -261.45976    32161.808 
 2780000    288.97563   -20610.849            0   -18758.018   -236.90102    33238.371 
 2790000    297.34099   -20681.958            0   -18775.491   -95.274542    32773.353 
 2800000    303.36009   -20638.893            0   -18693.832   -79.276855    32839.329 
 2810000    305.70854   -20643.349            0    -18683.23    1250.6595    32251.009 
 2820000    294.13899   -20589.473            0   -18703.536    1182.5716    32636.068 
 2830000    293.12611   -20584.603            0    -18705.16   -396.58897    32960.991 
 2840000    298.74102   -20575.015            0    -18659.57    1356.5199    32401.978 
 2850000    299.16595   -20662.626            0   -18744.457    138.37014    32305.523 
 2860000    297.56935   -20669.289            0   -18761.357   -914.81815    32773.615 
 2870000    294.12597    -20652.09            0   -18766.236   -3.3855925    32704.716 
 2880000      300.853   -20643.828            0   -18714.842   -499.31795    32589.469 
 2890000    305.48122   -20759.868            0   -18801.207    235.89608    32136.654 
 2900000    305.53205   -20777.579            0   -18818.592    -360.8846     32717.29 
 2910000    290.36842   -20667.629            0   -18805.867    -318.9783    32690.031 
 2920000    293.60993   -20683.877            0   -18801.331    637.61765    32414.449 
 2930000    293.17346   -20617.004            0   -18737.257    344.53618    32813.624 
 2940000    295.05589   -20620.623            0   -18728.807   -490.92726    32530.894 
 2950000    293.72554   -20596.624            0   -18713.337     156.1597    32724.267 
 2960000    306.63775   -20594.512            0   -18628.436   -520.79096    32553.303 
 2970000    310.19067   -20703.301            0   -18714.445    831.81531    32192.058 
 2980000    293.83391   -20644.106            0   -18760.125    283.02093    32558.511 
 2990000    299.70155   -20599.294            0   -18677.691   -404.76907    32269.662 
 3000000    287.47339    -20653.45            0    -18810.25   -540.05893    32883.995 
 3010000    300.39645   -20593.537            0   -18667.478    22.222521    32666.616 
 3020000    295.55679   -20606.211            0   -18711.183   -240.21294    32844.871 
 3030000    296.60106   -20689.337            0   -18787.613    399.09997    32422.653 
 3040000    295.70587   -20623.013            0   -18727.029     232.3464    32703.026 
 3050000    291.41484   -20578.351            0    -18709.88    577.54128    32684.294 
 3060000    290.13918   -20613.981            0   -18753.689     345.0885    32761.592 
 3070000    301.94927   -20596.793            0   -18660.778   -3.1136319    32303.965 
 3080000    288.35728   -20666.472            0   -18817.605   -777.52964    33000.858 
 3090000    299.32812   -20606.222            0   -18687.014   -383.69029    32769.259 
 3100000    301.62117   -20497.487            0   -18563.576   -410.99022    33052.142 
 3110000    292.07176     -20610.7            0   -18738.017   -207.82122    33042.095 
 3120000    307.23978   -20615.415            0   -18645.479   -129.55403    32599.487 
 3130000    297.71168   -20675.232            0   -18766.387    781.69683    32583.019 
 3140000    302.90927   -20621.015            0   -18678.845    75.373671    32893.323 
 3150000     286.0643   -20636.257            0   -18802.092   -176.41968    32731.355 
 3160000    290.87951   -20550.009            0   -18684.971   -380.14434    32951.248 
 3170000    298.17397   -20631.442            0   -18719.633   -618.90054     32907.29 
 3180000    298.25088   -20606.586            0   -18694.284   -171.99205    32624.791 
 3190000     300.1634   -20586.818            0   -18662.253    216.33926    32704.879 
 3200000    290.20149   -20556.028            0   -18695.337   -665.09161    32608.007 
 3210000     293.7687   -20597.924            0   -18714.361    25.873963    32392.005 
 3220000    296.55175   -20621.267            0   -18719.859    156.02474    32583.748 
 3230000    297.05712   -20606.449            0   -18701.801    480.12673    32165.904 
 3240000    296.17829    -20744.74            0   -18845.727    540.88899    32181.592 
 3250000    291.95536   -20587.945            0   -18716.009    4.2118861    32714.482 
 3260000    305.14904   -20585.632            0   -18629.101   -449.81039    32731.477 
 3270000    297.31733   -20668.498            0   -18762.182    727.44587    32594.547 
 3280000    303.24984   -20549.877            0   -18605.523    154.23319    32745.044 
 3290000    297.33642    -20589.61            0   -18683.172    729.12373    32456.722 
 3300000    299.98424     -20600.6            0   -18677.184   -44.606231    32659.726 
 3310000    290.18944   -20649.021            0   -18788.407    48.483044    32838.081 
 3320000    300.78208   -20687.275            0   -18758.744    1220.6126    32352.852 
 3330000    305.21423   -20678.311            0   -18721.362   -167.90916    33038.255 
 3340000    291.49253   -20678.621            0   -18809.652    1015.1615     32548.29 
 3350000    308.07719   -20668.233            0   -18692.928    546.91686    32096.344 
 3360000     293.9736   -20633.214            0   -18748.337    260.83396     32812.88 
 3370000    297.00387   -20733.127            0    -18828.82   -471.94219    32722.988 
 3380000    293.30017   -20576.434            0   -18695.874    78.936327    32963.082 
 3390000    301.03397   -20622.451            0   -18692.305    479.01323    32397.288 
 3400000    296.98515   -20592.463            0   -18688.276   -440.30109    32790.874 
 3410000    295.12878   -20594.468            0   -18702.185   -228.76221    32500.945 
 3420000    299.87648   -20640.475            0    -18717.75   -215.79895    32733.379 
 3430000    304.31733   -20685.242            0   -18734.044   -386.11263    32732.737 
 3440000    296.83115   -20618.903            0   -18715.704    607.19868    32152.437 
 3450000    290.94382   -20544.336            0   -18678.885   -925.37447    33107.362 
 3460000    300.33264   -20643.137            0   -18717.487   -69.369595    32325.743 
 3470000    307.54696   -20560.889            0   -18588.984   -18.957736    33257.959 
 3480000    302.15406   -20669.107            0    -18731.78    202.56819    32990.525 
 3490000    293.26655   -20538.717            0   -18658.373   -929.90563    33027.654 
 3500000    296.26322   -20592.223            0   -18692.665    194.56631    32880.052 
 3510000    301.72553   -20642.141            0    -18707.56    357.15189    32598.992 
 3520000    293.50885   -20657.234            0   -18775.337    97.435949    32335.889 
 3530000    306.02467   -20511.866            0    -18549.72   -126.87438    32659.212 
 3540000    299.56667   -20486.831            0   -18566.093   -809.15487    32828.356 
 3550000    300.45925   -20717.155            0   -18790.694     264.7527    32552.008 
 3560000     302.8068   -20649.799            0   -18708.286    228.15065    32854.116 
 3570000    299.26902   -20695.909            0   -18777.079    -71.39381    32531.093 
 3580000    293.75574   -20660.431            0   -18776.951     19.12004    32591.043 
 3590000    296.82368   -20602.815            0   -18699.664   -413.25442    33230.796 
 3600000    301.85064   -20607.629            0   -18672.247    244.53299    32838.753 
 3610000    296.29377   -20688.768            0   -18789.015    491.04801     32596.48 
 3620000    288.88435   -20521.859            0   -18669.612   -631.54502    33003.618 
 3630000    305.30586   -20633.768            0   -18676.231   -116.60691    32759.469 
 3640000    292.66819   -20666.208            0   -18789.701   -129.18484    32389.186 
 3650000    306.55029   -20673.329            0   -18707.814   -575.79216    32833.623 
 3660000    294.05574   -20649.639            0   -18764.235   -1076.4333    32930.335 
 3670000    295.22995   -20546.392            0   -18653.459   -469.57969     32609.97 
 3680000    305.66918   -20706.254            0   -18746.388     113.6856    32653.092 
 3690000    294.15728   -20655.997            0   -18769.942    503.05566    32386.459 
 3700000    310.45215   -20596.841            0   -18606.308   -522.33773    32466.554 
 3710000    293.20887   -20641.182            0   -18761.208   -71.426392    32794.254 
 3720000    300.25216    -20615.08            0   -18689.946   -13.187455    32591.067 
 3730000    298.68919   -20620.693            0   -18705.581    787.95924    32354.381 
 3740000    301.58373   -20608.665            0   -18674.994    84.693134    32276.094 
 3750000     288.5346   -20620.228            0   -18770.224     -76.6795    32760.394 
 3760000    301.04084   -20652.983            0   -18722.793   -10.647793    32495.724 
 3770000    305.18737   -20626.247            0    -18669.47    613.53355    32136.019 
 3780000    293.52925   -20586.011            0   -18703.983   -1098.7561    32730.737 
 3790000     300.1599   -20707.201            0   -18782.659    407.48285    32665.294 
 3800000    294.92365   -20625.856            0   -18734.888   -885.78644    32586.923 
 3810000    295.04294   -20606.829            0   -18715.096    14.829122    32749.552 
 3820000    299.74331     -20604.4            0   -18682.529    76.647611    32633.177 
 3830000    290.74854    -20663.89            0   -18799.691   -114.53304    32416.606 
 3840000      298.673   -20627.006            0   -18711.997   -261.49883    32855.785 
 3850000    296.01852   -20659.648            0    -18761.66    444.35343    32426.697 
 3860000    299.81721   -20682.977            0   -18760.632     -414.089    32958.939 
 3870000    292.08962   -20695.923            0   -18823.126   -78.508665    32784.442 
 3880000    287.92523   -20634.461            0   -18788.365    59.384435    32815.878 
 3890000    298.43213   -20511.662            0   -18598.198    522.90777    32472.791 
 3900000    300.69349    -20701.37            0   -18773.407   -554.48578     32726.45 
 3910000    295.16293   -20559.662            0   -18667.159     294.9874    32792.235 
 3920000      295.605   -20500.566            0   -18605.229    103.13734    32841.836 
 3930000    292.27253   -20622.688            0   -18748.717   -52.993445    32799.486 
 3940000    295.51798   -20596.538            0   -18701.759     742.0389    32375.729 
 3950000    305.48242   -20642.183            0   -18683.514   -511.24445     33001.78 
 3960000    309.92645   -20638.974            0   -18651.812    1263.0085    32767.213 
 3970000    298.05881   -20678.289            0   -18767.219    541.57772    32868.684 
 3980000    287.43833   -20660.259            0   -18817.284   -429.62905    32989.665 
 3990000    296.58503   -20624.793            0   -18723.172    497.86641    32029.237 
 4000000    292.76249    -20568.84            0   -18691.728   -394.03972    33393.761 
 4010000    307.44792   -20577.456            0   -18606.185   -478.99898    32682.792 
 4020000    301.57182   -20525.208            0   -18591.613   -1118.2785    33405.639 
 4030000    295.19608   -20627.206            0    -18734.49   -730.56599    32749.616 
 4040000    302.98365   -20626.205            0   -18683.558   -339.71442    32793.207 
 4050000    301.86522   -20573.122            0   -18637.646    1077.2227    32225.986 
 4060000    290.21297   -20559.352            0   -18698.587    632.31276    32720.013 
 4070000    292.77653   -20558.736            0   -18681.534   -518.34061    33187.085 
 4080000     296.8124   -20606.221            0   -18703.142   -20.728258    32698.498 
 4090000    293.57655   -20675.271            0    -18792.94    162.95602     32645.87 
 4100000    297.42411   -20593.312            0   -18686.311   -28.898033    32826.989 
 4110000    303.41864   -20655.909            0   -18710.472   -59.566205     32475.55 
 4120000     303.2834    -20645.87            0   -18701.301    527.99989    32357.231 
 4130000    309.17475   -20686.262            0   -18703.919     408.1687     32665.29 
 4140000    301.48679   -20532.875            0   -18599.825   -325.67427    32978.599 
 4150000    299.04059   -20579.649            0   -18662.284    841.66052    32734.836 
 4160000      293.883    -20722.36            0   -18838.063   -925.42005    32715.519 
 4170000    297.53716   -20701.537            0   -18793.811    317.15275    32327.294 
 4180000    290.38302   -20649.271            0   -18787.416    454.98202    32451.983 
 4190000    297.51061   -20685.459            0   -18777.903    999.56108    32526.411 
 4200000    296.97087   -20616.323            0   -18712.228   -640.99623    33305.515 
 4210000    297.42794   -20775.669            0   -18868.644    1005.3108    32211.817 
 4220000    291.36919    -20618.05            0   -18749.871   -296.72962    32613.773 
 4230000    306.71238   -20627.017            0   -18660.463    331.96006    32573.635 
 4240000    300.75763   -20600.713            0   -18672.339    153.21959    32822.581 
 4250000    305.74484   -20596.824            0   -18636.473      416.478    32465.046 
 4260000    295.62129   -20705.476            0   -18810.035    8.6087957    32443.039 
 4270000    293.44067    -20577.25            0   -18695.789    356.66502    32485.762 
 4280000    310.21992   -20753.694            0    -18764.65   -334.72329    32820.249 
 4290000    290.74589   -20503.512            0    -18639.33   -1122.6818    33212.868 
 4300000    296.99224   -20712.822            0    -18808.59   -572.48179    32591.016 
 4310000    290.49499   -20660.094            0   -18797.521   -501.08343    32622.674 
 4320000     289.5082   -20641.073            0   -18784.827   -210.45825    32388.792 
 4330000    305.50638   -20631.644            0   -18672.821    444.01998    32650.013 
 4340000    297.05345   -20654.547            0   -18749.922     33.91465    32584.062 
 4350000    301.17846   -20613.245            0   -18682.172   -371.18373    32663.365 
 4360000    293.17044   -20617.603            0   -18737.876    610.21289    32782.946 
 4370000    296.94204   -20582.962            0   -18679.052   -832.09731    32771.647 
 4380000    296.11933    -20556.81            0   -18658.175   -430.18482    32966.476 
 4390000    296.83199   -20532.851            0   -18629.647   -503.81026    32920.661 
 4400000    298.79814   -20692.053            0   -18776.242   -418.03115    33177.714 
 4410000    297.20941   -20598.325            0   -18692.701   -649.13972    32908.518 
 4420000    298.99364   -20663.375            0   -18746.311     -251.491    32980.664 
 4430000    298.90503   -20610.757            0   -18694.261   -944.52031    33080.871 
 4440000    301.56476    -20644.13            0    -18710.58    192.15617    32422.642 
 4450000    302.12206   -20647.694            0   -18710.571    -282.3525    32382.383 
 4460000    306.42547   -20719.355            0    -18754.64    1213.1352    32454.257 
 4470000    291.87555   -20575.553            0   -18704.128   -625.05365    32843.746 
 4480000    291.47872   -20609.841            0   -18740.961   -388.72521      32668.6 
 4490000    300.19488   -20607.299            0   -18682.532   -106.75922    32889.636 
 4500000      299.977   -20624.802            0   -18701.432    840.92668    32330.216 
 4510000    303.20493   -20682.858            0   -18738.792    181.02845    32836.063 
 4520000    294.11671   -20721.744            0   -18835.949    1253.2326    32633.235 
 4530000    292.02205   -20617.323            0   -18744.959    223.70717    32978.759 
 4540000    302.34004   -20595.755            0   -18657.234   -483.57607    32620.041 
 4550000    298.35027   -20617.625            0   -18704.686   -309.13538      32521.2 
 4560000    293.06056   -20618.578            0   -18739.555    30.843196    32257.051 
 4570000    290.26459    -20655.69            0   -18794.594    200.38303     32474.64 
 4580000     291.1516   -20576.087            0   -18709.304   -192.38766    32833.376 
 4590000     306.4277   -20580.098            0   -18615.369   -796.87586    32896.173 
 4600000    297.98159   -20591.202            0   -18680.626    1.6975123    32822.536 
 4610000    302.84964   -20583.458            0    -18641.67   -466.60659    32774.509 
 4620000    295.56218   -20599.048            0   -18703.986   -773.23824    32632.516 
 4630000    290.89788   -20634.819            0   -18769.662   -238.69216    32558.317 
 4640000    293.59566   -20787.756            0   -18905.302   -183.76372    32407.668 
 4650000    290.31346   -20549.426            0   -18688.017    851.80413    32640.875 
 4660000     288.6128   -20589.116            0   -18738.611     373.8916    32630.912 
 4670000     303.2019   -20570.562            0   -18626.516    32.488379    32654.169 
 4680000    302.16895   -20552.282            0   -18614.858   -147.37943    32888.125 
 4690000    303.63107   -20682.386            0   -18735.588    2.1181316    32369.632 
 4700000    302.36832   -20602.886            0   -18664.185    305.68326    32838.565 
 4710000    297.29079   -20529.921            0   -18623.775      1280.87    32599.704 
 4720000    297.81454   -20611.928            0   -18702.424   -264.42427    32937.028 
 4730000    309.79903   -20640.461            0   -18654.116    797.37726    32763.462 
 4740000    296.74425   -20477.269            0   -18574.627     -1017.93    32979.894 
 4750000     290.7263   -20674.323            0   -18810.267     227.7883    32681.375 
 4760000    299.52099   -20633.756            0    -18713.31   -227.58422    32892.223 
 4770000     296.3481    -20517.27            0   -18617.168   -607.73738    32974.916 
 4780000    298.41454   -20565.577            0   -18652.226   -646.81596    33063.083 
 4790000    295.77096     -20680.6            0   -18784.199    1083.3868    32483.733 
 4800000     297.1093   -20517.358            0   -18612.376   -599.36102    33115.251 
 4810000    296.34084    -20606.27            0   -18706.215    487.78887     32492.38 
 4820000    293.66863   -20663.345            0   -18780.423    138.21142    32314.615 
 4830000    298.37166   -20751.806            0    -18838.73   -261.02896     32573.24 
 4840000    291.15979   -20703.521            0   -18836.685    324.18541    32870.012 
 4850000    305.63878   -20641.296            0   -18681.625    86.104498     32468.56 
 4860000    295.20008   -20628.913            0   -18736.172    377.97696    32575.698 
 4870000     304.1673   -20542.114            0   -18591.878   -446.02472    32498.581 
 4880000    291.33509   -20770.352            0   -18902.392   -193.81042    32462.498 
 4890000     300.4277   -20591.917            0   -18665.658    130.92045    32748.985 
 4900000    299.07468   -20667.727            0   -18750.143   -63.746584    32741.238 
 4910000    302.48748   -20606.489            0   -18667.023   -473.72911     32701.19 
 4920000    291.99127   -20665.501            0   -18793.334    63.957499    32667.814 
 4930000    288.10026   -20602.792            0   -18755.573   -16.123064    32322.795 
 4940000    295.45168   -20602.149            0   -18707.794    -109.2386    32442.568 
 4950000    301.72084   -20609.934            0   -18675.384   -686.97008    32746.527 
 4960000    299.51681   -20647.977            0   -18727.559   -830.19774    33193.682 
 4970000    300.72204   -20660.087            0    -18731.94   -332.70497    32772.233 
 4980000    293.65524   -20664.674            0   -18781.838    202.31243    32395.357 
 4990000    293.81689   -20558.232            0    -18674.36   -927.58236    33116.679 
 5000000    306.51984   -20613.492            0   -18648.172   -652.27661    32974.306 
Loop time of 5291.75 on 128 procs for 5000000 steps with 3152 atoms

Performance: 163.273 ns/day, 0.147 hours/ns, 944.867 timesteps/s
99.3% CPU use with 128 MPI tasks x no OpenMP threads

MPI task timing breakdown:
Section |  min time  |  avg time  |  max time  |%varavg| %total
---------------------------------------------------------------
Pair    | 1193       | 1437.2     | 1659.3     | 301.8 | 27.16
Bond    | 0.50363    | 0.60968    | 0.96939    |  10.4 |  0.01
Kspace  | 2137.8     | 2352.4     | 2574.2     | 229.7 | 44.45
Neigh   | 148.1      | 152.23     | 156.35     |  27.9 |  2.88
Comm    | 550.2      | 618.02     | 693.24     | 135.9 | 11.68
Output  | 0.04318    | 0.043732   | 0.044954   |   0.2 |  0.00
Modify  | 539.51     | 643.71     | 693.82     | 141.6 | 12.16
Other   |            | 87.58      |            |       |  1.65

Nlocal:    24.625 ave 34 max 17 min
Histogram: 1 7 24 18 31 22 15 5 4 1
Nghost:    2892.75 ave 2916 max 2875 min
Histogram: 6 8 29 20 15 20 17 10 2 1
Neighs:    9186.59 ave 13633 max 6253 min
Histogram: 5 17 25 17 25 17 11 9 1 1

Total # of neighbors = 1175884
Ave neighs/atom = 373.06
Ave special neighs/atom = 1.90355
Neighbor list builds = 436458
Dangerous builds = 0
PPPM initialization ...
  extracting TIP4P info from pair style
  using 12-bit tables for long-range coulomb (../kspace.cpp:321)
  G vector (1/distance) = 0.310343
  grid = 30 30 30
  stencil order = 5
  estimated absolute RMS force accuracy = 0.00371561
  estimated relative force accuracy = 1.11894e-05
  using double precision FFTs
  3d grid and FFT values/proc = 2475 256
Setting up Verlet run ...
  Unit style    : real
  Current step  : 0
  Time step     : 2
Per MPI rank memory allocation (min/avg/max) = 8.199 | 8.211 | 8.218 Mbytes
Density 
   1.1308975 
    1.156594 
    1.150635 
   1.1387085 
   1.1323382 
   1.1454539 
   1.1575104 
   1.1381745 
   1.1453801 
   1.1360014 
   1.1334158 
   1.1364732 
   1.1551166 
   1.1452885 
   1.1457037 
   1.1252981 
   1.1514493 
   1.1318531 
   1.1387886 
   1.1444242 
   1.1389776 
   1.1440694 
   1.1506287 
   1.1493771 
   1.1521493 
   1.1544017 
   1.1365808 
   1.1458725 
   1.1375445 
   1.1225386 
   1.1353404 
   1.1282159 
   1.1409473 
   1.1528023 
   1.1404458 
   1.1343316 
   1.1390909 
    1.129159 
   1.1291587 
   1.1424676 
    1.129515 
   1.1315288 
   1.1400335 
   1.1536253 
   1.1357769 
   1.1381742 
   1.1397279 
   1.1543437 
   1.1468529 
   1.1480162 
   1.1466044 
   1.1402778 
   1.1385064 
   1.1509844 
    1.131898 
    1.150554 
   1.1391943 
   1.1368309 
   1.1351005 
   1.1377832 
   1.1410167 
   1.1443053 
   1.1287424 
   1.1345872 
   1.1335374 
   1.1476834 
   1.1448744 
   1.1350124 
    1.139682 
   1.1526221 
   1.1372639 
   1.1364377 
   1.1318037 
   1.1344983 
   1.1432671 
   1.1406956 
   1.1314955 
   1.1366297 
   1.1259958 
   1.1315313 
   1.1330243 
   1.1430437 
   1.1489182 
   1.1595482 
   1.1388335 
   1.1317339 
   1.1275576 
   1.1546805 
   1.1408262 
   1.1382884 
   1.1563309 
   1.1236167 
    1.140438 
    1.143784 
   1.1540232 
   1.1395265 
   1.1493799 
   1.1361481 
   1.1417042 
   1.1393566 
   1.1348348 
   1.1253441 
   1.1625394 
   1.1359388 
   1.1426824 
   1.1493548 
   1.1603187 
   1.1448693 
   1.1306441 
   1.1524233 
   1.1362907 
   1.1565611 
   1.1485901 
    1.139073 
   1.1426494 
   1.1372187 
   1.1461903 
   1.1546758 
   1.1501486 
   1.1452898 
   1.1555651 
   1.1409595 
    1.147931 
   1.1388119 
   1.1289648 
   1.1372865 
    1.124778 
   1.1299449 
   1.1381804 
   1.1444206 
   1.1468973 
    1.149834 
   1.1533891 
   1.1413229 
   1.1326872 
   1.1644522 
   1.1414468 
   1.1479464 
   1.1557539 
   1.1452937 
   1.1407604 
   1.1435381 
   1.1431732 
    1.150039 
   1.1409375 
   1.1267819 
   1.1313091 
   1.1442395 
   1.1575609 
   1.1598976 
   1.1448446 
   1.1446157 
   1.1355135 
   1.1406929 
   1.1438996 
   1.1452879 
   1.1348249 
   1.1439848 
   1.1453051 
   1.1496568 
   1.1548766 
   1.1420996 
    1.133595 
   1.1369753 
   1.1334612 
   1.1474455 
   1.1437309 
   1.1558519 
    1.145074 
   1.1266974 
   1.1302299 
   1.1429414 
   1.1421837 
   1.1485316 
   1.1304332 
   1.1474308 
   1.1580511 
   1.1395878 
   1.1538544 
   1.1432567 
   1.1439173 
   1.1489602 
   1.1600047 
   1.1302844 
   1.1330116 
    1.140365 
   1.1440992 
   1.1414134 
   1.1369967 
   1.1540361 
   1.1435782 
   1.1589978 
   1.1353746 
   1.1304403 
   1.1327544 
   1.1255334 
   1.1476189 
   1.1563194 
   1.1528892 
   1.1447088 
   1.1507376 
   1.1338954 
   1.1496202 
   1.1581706 
   1.1351456 
   1.1376361 
   1.1499426 
   1.1392315 
   1.1584613 
   1.1475499 
   1.1371109 
   1.1363823 
   1.1368664 
   1.1489175 
   1.1415043 
   1.1458258 
   1.1281112 
   1.1347218 
   1.1420331 
   1.1474832 
   1.1261309 
   1.1401934 
   1.1345802 
   1.1401193 
   1.1565862 
   1.1508051 
   1.1314951 
   1.1311931 
   1.1344894 
   1.1219213 
   1.1343651 
   1.1422393 
   1.1452802 
     1.14034 
   1.1212864 
   1.1480723 
   1.1357682 
   1.1399087 
   1.1317421 
   1.1549972 
   1.1260302 
    1.122726 
    1.139664 
   1.1529746 
    1.139576 
   1.1519024 
   1.1479464 
   1.1492863 
   1.1394728 
   1.1479932 
   1.1300747 
   1.1406178 
   1.1509793 
   1.1484963 
   1.1299511 
    1.140427 
   1.1485381 
   1.1433368 
   1.1630935 
   1.1296081 
   1.1332983 
    1.140202 
   1.1522196 
   1.1582052 
   1.1318862 
    1.140582 
   1.1470178 
    1.131135 
    1.153974 
   1.1280394 
   1.1343736 
   1.1398737 
   1.1231706 
   1.1361254 
   1.1365887 
   1.1490397 
   1.1403984 
   1.1419772 
   1.1453771 
   1.1473766 
   1.1229798 
      1.1403 
   1.1498124 
   1.1219529 
   1.1212925 
    1.134528 
   1.1401338 
   1.1464541 
   1.1539419 
   1.1316028 
   1.1478009 
   1.1525189 
   1.1383051 
   1.1608186 
   1.1460209 
   1.1406611 
   1.1411545 
   1.1306679 
   1.1397097 
   1.1300071 
   1.1372874 
    1.128735 
    1.138757 
   1.1351174 
   1.1530079 
   1.1438334 
   1.1432758 
   1.1408542 
   1.1314933 
     1.12921 
   1.1479653 
   1.1382676 
   1.1500673 
   1.1477771 
   1.1486464 
   1.1531202 
   1.1433316 
   1.1286345 
    1.145974 
   1.1413674 
    1.139691 
   1.1356592 
    1.136241 
   1.1208781 
   1.1358057 
   1.1486982 
    1.142594 
    1.135242 
   1.1318036 
    1.138221 
   1.1499944 
   1.1443483 
   1.1534044 
   1.1254466 
   1.1543753 
   1.1632945 
   1.1338958 
   1.1560405 
   1.1453917 
   1.1387043 
   1.1514306 
    1.133498 
   1.1455645 
   1.1186799 
   1.1584412 
   1.1460214 
   1.1478283 
   1.1424811 
   1.1462969 
   1.1425562 
   1.1464236 
   1.1422662 
   1.1373685 
   1.1259198 
   1.1482949 
   1.1515652 
   1.1422719 
   1.1575125 
   1.1404366 
   1.1281371 
   1.1326755 
   1.1360248 
    1.143562 
   1.1343664 
   1.1467656 
   1.1463563 
   1.1388592 
   1.1371037 
   1.1476002 
   1.1528483 
   1.1477044 
   1.1304135 
   1.1320203 
   1.1539977 
   1.1357178 
   1.1307403 
   1.1418392 
   1.1221118 
   1.1426782 
   1.1437036 
    1.152438 
   1.1197911 
   1.1481984 
   1.1468405 
   1.1423761 
   1.1151805 
   1.1516764 
   1.1458055 
   1.1333556 
   1.1406389 
   1.1309857 
   1.1572478 
   1.1463865 
   1.1414492 
   1.1464032 
    1.139349 
    1.128706 
   1.1422835 
   1.1394836 
    1.139681 
   1.1504127 
   1.1409491 
   1.1289298 
   1.1453147 
   1.1407302 
   1.1468714 
   1.1309091 
   1.1449026 
   1.1338918 
   1.1411719 
   1.1343854 
   1.1538835 
   1.1561547 
   1.1549835 
   1.1409286 
   1.1494592 
   1.1313863 
    1.156153 
   1.1386007 
   1.1490142 
   1.1427004 
   1.1337915 
   1.1315973 
   1.1490039 
   1.1323835 
   1.1492324 
   1.1468828 
   1.1428151 
    1.151075 
   1.1449571 
   1.1494683 
   1.1481819 
   1.1350627 
   1.1459208 
   1.1338241 
   1.1293681 
   1.1347446 
   1.1480044 
    1.143364 
   1.1462918 
   1.1512926 
   1.1425759 
   1.1461386 
   1.1443993 
   1.1495617 
   1.1381832 
   1.1488417 
   1.1388579 
   1.1361522 
     1.13888 
   1.1442589 
   1.1445068 
   1.1199983 
   1.1275087 
   1.1459816 
   1.1517916 
   1.1488221 
   1.1349257 
   1.1293499 
   1.1240894 
   1.1433939 
   1.1624488 
   1.1339254 
   1.1522521 
   1.1405698 
    1.140005 
   1.1587636 
   1.1319953 
   1.1305538 
   1.1345042 
   1.1523834 
    1.150168 
   1.1380445 
   1.1453403 
   1.1505269 
   1.1451208 
   1.1401133 
   1.1428128 
   1.1362578 
   1.1344634 
   1.1522278 
   1.1487196 
   1.1444457 
   1.1343751 
   1.1497299 
   1.1485461 
   1.1454637 
   1.1497975 
   1.1345871 
   1.1449779 
   1.1406803 
   1.1506521 
   1.1418069 
   1.1409142 
   1.1408656 
   1.1493455 
   1.1452751 
   1.1382412 
   1.1441262 
   1.1336927 
   1.1288784 
Loop time of 5338.06 on 128 procs for 5000000 steps with 3152 atoms

Performance: 161.857 ns/day, 0.148 hours/ns, 936.670 timesteps/s
99.3% CPU use with 128 MPI tasks x no OpenMP threads

MPI task timing breakdown:
Section |  min time  |  avg time  |  max time  |%varavg| %total
---------------------------------------------------------------
Pair    | 1189.9     | 1435.4     | 1661.8     | 302.5 | 26.89
Bond    | 0.49089    | 0.60953    | 1.0227     |  11.0 |  0.01
Kspace  | 2137.3     | 2352.6     | 2574.7     | 230.8 | 44.07
Neigh   | 145.82     | 150.12     | 154.42     |  27.9 |  2.81
Comm    | 548.03     | 615.65     | 690.41     | 136.3 | 11.53
Output  | 0.018663   | 0.023119   | 0.049529   |   2.2 |  0.00
Modify  | 592.55     | 697.23     | 747.7      | 136.1 | 13.06
Other   |            | 86.37      |            |       |  1.62

Nlocal:    24.625 ave 32 max 15 min
Histogram: 2 1 10 13 22 24 15 26 11 4
Nghost:    2886.88 ave 2911 max 2860 min
Histogram: 1 9 10 10 20 28 31 10 6 3
Neighs:    9173.03 ave 13054 max 5930 min
Histogram: 9 6 14 18 20 29 19 9 2 2

Total # of neighbors = 1174148
Ave neighs/atom = 372.509
Ave special neighs/atom = 1.90355
Neighbor list builds = 436546
Dangerous builds = 0
Changing box ...
  orthogonal box = (0.805025 0.805025 0.805025) to (32.7722 32.8911 32.8911)
  orthogonal box = (0.805025 0.805025 0.805025) to (32.7722 32.7722 32.8911)
  orthogonal box = (0.805025 0.805025 0.805025) to (32.7722 32.7722 32.7722)
PPPM initialization ...
  extracting TIP4P info from pair style
  using 12-bit tables for long-range coulomb (../kspace.cpp:321)
  G vector (1/distance) = 0.310568
  grid = 30 30 30
  stencil order = 5
  estimated absolute RMS force accuracy = 0.00368126
  estimated relative force accuracy = 1.1086e-05
  using double precision FFTs
  3d grid and FFT values/proc = 2475 256
Setting up Verlet run ...
  Unit style    : real
  Current step  : 0
  Time step     : 0.001
Per MPI rank memory allocation (min/avg/max) = 8.199 | 8.212 | 8.219 Mbytes
Density 
   1.1415218 
   1.1415218 
Loop time of 7.62214 on 128 procs for 10000 steps with 3152 atoms

Performance: 0.113 ns/day, 211.726 hours/ns, 1311.967 timesteps/s
99.5% CPU use with 128 MPI tasks x no OpenMP threads

MPI task timing breakdown:
Section |  min time  |  avg time  |  max time  |%varavg| %total
---------------------------------------------------------------
Pair    | 1.28       | 2.1291     | 2.9872     |  25.8 | 27.93
Bond    | 0.00070951 | 0.00083761 | 0.0012784  |   0.0 |  0.01
Kspace  | 2.7955     | 3.6308     | 4.4392     |  19.3 | 47.64
Neigh   | 0          | 0          | 0          |   0.0 |  0.00
Comm    | 0.97573    | 1.0661     | 1.1328     |   3.5 | 13.99
Output  | 1.9556e-05 | 2.6892e-05 | 0.00010013 |   0.0 |  0.00
Modify  | 0.62214    | 0.68588    | 0.73974    |   3.6 |  9.00
Other   |            | 0.1094     |            |       |  1.43

Nlocal:    24.625 ave 32 max 16 min
Histogram: 2 5 10 23 9 27 21 10 16 5
Nghost:    2918.89 ave 2937 max 2888 min
Histogram: 4 2 8 5 10 19 24 26 23 7
Neighs:    9270.73 ave 12831 max 5950 min
Histogram: 7 7 15 17 22 17 21 13 4 5

Total # of neighbors = 1186653
Ave neighs/atom = 376.476
Ave special neighs/atom = 1.90355
Neighbor list builds = 0
Dangerous builds = 0
PPPM initialization ...
  extracting TIP4P info from pair style
  using 12-bit tables for long-range coulomb (../kspace.cpp:321)
  G vector (1/distance) = 0.310568
  grid = 30 30 30
  stencil order = 5
  estimated absolute RMS force accuracy = 0.00368126
  estimated relative force accuracy = 1.1086e-05
  using double precision FFTs
  3d grid and FFT values/proc = 2475 256
Setting up Verlet run ...
  Unit style    : real
  Current step  : 10000
  Time step     : 0.01
Per MPI rank memory allocation (min/avg/max) = 8.199 | 8.212 | 8.219 Mbytes
Density 
   1.1415218 
   1.1415218 
Loop time of 7.97946 on 128 procs for 10000 steps with 3152 atoms

Performance: 1.083 ns/day, 22.165 hours/ns, 1253.217 timesteps/s
99.4% CPU use with 128 MPI tasks x no OpenMP threads

MPI task timing breakdown:
Section |  min time  |  avg time  |  max time  |%varavg| %total
---------------------------------------------------------------
Pair    | 1.3278     | 2.1265     | 3.0215     |  25.0 | 26.65
Bond    | 0.00070062 | 0.00084328 | 0.0012839  |   0.0 |  0.01
Kspace  | 3.0114     | 3.8927     | 4.6767     |  18.2 | 48.78
Neigh   | 0.0012172  | 0.0012318  | 0.0012475  |   0.0 |  0.02
Comm    | 0.97324    | 1.0738     | 1.1861     |   4.0 | 13.46
Output  | 2.4055e-05 | 3.3573e-05 | 7.8567e-05 |   0.0 |  0.00
Modify  | 0.70736    | 0.77583    | 0.83043    |   3.6 |  9.72
Other   |            | 0.1085     |            |       |  1.36

Nlocal:    24.625 ave 32 max 17 min
Histogram: 2 5 20 15 18 9 36 5 14 4
Nghost:    2908.17 ave 2929 max 2890 min
Histogram: 9 16 13 11 18 21 17 11 6 6
Neighs:    9267.22 ave 13103 max 6049 min
Histogram: 8 8 21 16 20 17 18 14 4 2

Total # of neighbors = 1186204
Ave neighs/atom = 376.334
Ave special neighs/atom = 1.90355
Neighbor list builds = 4
Dangerous builds = 0
PPPM initialization ...
  extracting TIP4P info from pair style
  using 12-bit tables for long-range coulomb (../kspace.cpp:321)
  G vector (1/distance) = 0.310568
  grid = 30 30 30
  stencil order = 5
  estimated absolute RMS force accuracy = 0.00368126
  estimated relative force accuracy = 1.1086e-05
  using double precision FFTs
  3d grid and FFT values/proc = 2475 256
Setting up Verlet run ...
  Unit style    : real
  Current step  : 20000
  Time step     : 0.1
Per MPI rank memory allocation (min/avg/max) = 8.199 | 8.212 | 8.219 Mbytes
Density 
   1.1415218 
   1.1415218 
Loop time of 7.85923 on 128 procs for 10000 steps with 3152 atoms

Performance: 10.993 ns/day, 2.183 hours/ns, 1272.389 timesteps/s
99.5% CPU use with 128 MPI tasks x no OpenMP threads

MPI task timing breakdown:
Section |  min time  |  avg time  |  max time  |%varavg| %total
---------------------------------------------------------------
Pair    | 1.2735     | 2.1345     | 3.1346     |  21.6 | 27.16
Bond    | 0.00071832 | 0.00085265 | 0.0015269  |   0.0 |  0.01
Kspace  | 2.8775     | 3.8529     | 4.6752     |  15.8 | 49.02
Neigh   | 0.014166   | 0.014277   | 0.014443   |   0.0 |  0.18
Comm    | 0.96093    | 1.0583     | 1.1336     |   3.6 | 13.47
Output  | 3.218e-05  | 4.139e-05  | 8.7353e-05 |   0.0 |  0.00
Modify  | 0.61774    | 0.68972    | 0.74386    |   3.8 |  8.78
Other   |            | 0.1086     |            |       |  1.38

Nlocal:    24.625 ave 32 max 18 min
Histogram: 6 6 20 13 19 28 13 17 4 2
Nghost:    2903.91 ave 2922 max 2882 min
Histogram: 4 10 7 14 12 18 17 24 14 8
Neighs:    9269.44 ave 13351 max 6172 min
Histogram: 5 7 27 20 26 17 15 4 5 2

Total # of neighbors = 1186488
Ave neighs/atom = 376.424
Ave special neighs/atom = 1.90355
Neighbor list builds = 44
Dangerous builds = 0
PPPM initialization ...
  extracting TIP4P info from pair style
  using 12-bit tables for long-range coulomb (../kspace.cpp:321)
  G vector (1/distance) = 0.310568
  grid = 30 30 30
  stencil order = 5
  estimated absolute RMS force accuracy = 0.00368126
  estimated relative force accuracy = 1.1086e-05
  using double precision FFTs
  3d grid and FFT values/proc = 2475 256
Setting up Verlet run ...
  Unit style    : real
  Current step  : 30000
  Time step     : 0.2
Per MPI rank memory allocation (min/avg/max) = 8.199 | 8.212 | 8.219 Mbytes
Density 
   1.1415218 
   1.1415218 
Loop time of 8.08471 on 128 procs for 10000 steps with 3152 atoms

Performance: 21.374 ns/day, 1.123 hours/ns, 1236.902 timesteps/s
99.4% CPU use with 128 MPI tasks x no OpenMP threads

MPI task timing breakdown:
Section |  min time  |  avg time  |  max time  |%varavg| %total
---------------------------------------------------------------
Pair    | 1.5023     | 2.1453     | 3.0419     |  18.9 | 26.53
Bond    | 0.00071736 | 0.00084943 | 0.0012559  |   0.0 |  0.01
Kspace  | 3.0699     | 3.9762     | 4.636      |  13.6 | 49.18
Neigh   | 0.028046   | 0.028301   | 0.02857    |   0.1 |  0.35
Comm    | 0.98814    | 1.1061     | 1.1728     |   3.6 | 13.68
Output  | 3.3202e-05 | 4.375e-05  | 0.0001074  |   0.0 |  0.00
Modify  | 0.64805    | 0.71752    | 0.77002    |   3.7 |  8.88
Other   |            | 0.1105     |            |       |  1.37

Nlocal:    24.625 ave 35 max 18 min
Histogram: 5 16 24 20 28 21 8 2 3 1
Nghost:    2910.34 ave 2939 max 2877 min
Histogram: 4 5 8 14 21 28 16 14 12 6
Neighs:    9270.98 ave 13593 max 6469 min
Histogram: 7 13 25 30 25 10 5 6 3 4

Total # of neighbors = 1186686
Ave neighs/atom = 376.487
Ave special neighs/atom = 1.90355
Neighbor list builds = 88
Dangerous builds = 0
PPPM initialization ...
  extracting TIP4P info from pair style
  using 12-bit tables for long-range coulomb (../kspace.cpp:321)
  G vector (1/distance) = 0.310568
  grid = 30 30 30
  stencil order = 5
  estimated absolute RMS force accuracy = 0.00368126
  estimated relative force accuracy = 1.1086e-05
  using double precision FFTs
  3d grid and FFT values/proc = 2475 256
Setting up Verlet run ...
  Unit style    : real
  Current step  : 40000
  Time step     : 0.5
Per MPI rank memory allocation (min/avg/max) = 8.199 | 8.212 | 8.219 Mbytes
Density 
   1.1415218 
   1.1415218 
Loop time of 7.8929 on 128 procs for 10000 steps with 3152 atoms

Performance: 54.733 ns/day, 0.438 hours/ns, 1266.961 timesteps/s
99.4% CPU use with 128 MPI tasks x no OpenMP threads

MPI task timing breakdown:
Section |  min time  |  avg time  |  max time  |%varavg| %total
---------------------------------------------------------------
Pair    | 1.6763     | 2.161      | 2.901      |  15.2 | 27.38
Bond    | 0.00070335 | 0.00084844 | 0.0012191  |   0.0 |  0.01
Kspace  | 3.0435     | 3.7858     | 4.263      |  11.4 | 47.96
Neigh   | 0.06996    | 0.070502   | 0.071072   |   0.1 |  0.89
Comm    | 0.99316    | 1.0782     | 1.1442     |   3.5 | 13.66
Output  | 3.0026e-05 | 3.9221e-05 | 0.00012586 |   0.0 |  0.00
Modify  | 0.6167     | 0.68854    | 0.74249    |   3.8 |  8.72
Other   |            | 0.108      |            |       |  1.37

Nlocal:    24.625 ave 34 max 17 min
Histogram: 3 6 22 12 39 28 6 7 4 1
Nghost:    2920.22 ave 2960 max 2884 min
Histogram: 3 7 13 26 18 28 18 8 6 1
Neighs:    9269.48 ave 13447 max 5394 min
Histogram: 1 1 19 21 28 29 18 6 3 2

Total # of neighbors = 1186493
Ave neighs/atom = 376.425
Ave special neighs/atom = 1.90355
Neighbor list builds = 223
Dangerous builds = 0
PPPM initialization ...
  extracting TIP4P info from pair style
  using 12-bit tables for long-range coulomb (../kspace.cpp:321)
  G vector (1/distance) = 0.310568
  grid = 30 30 30
  stencil order = 5
  estimated absolute RMS force accuracy = 0.00368126
  estimated relative force accuracy = 1.1086e-05
  using double precision FFTs
  3d grid and FFT values/proc = 2475 256
Setting up Verlet run ...
  Unit style    : real
  Current step  : 0
  Time step     : 2
Per MPI rank memory allocation (min/avg/max) = 8.199 | 8.212 | 8.219 Mbytes
Density 
   1.1415218 
   1.1415218 
   1.1415218 
   1.1415218 
   1.1415218 
   1.1415218 
   1.1415218 
   1.1415218 
   1.1415218 
   1.1415218 
   1.1415218 
Loop time of 84.3694 on 128 procs for 100000 steps with 3152 atoms

Performance: 204.814 ns/day, 0.117 hours/ns, 1185.263 timesteps/s
99.4% CPU use with 128 MPI tasks x no OpenMP threads

MPI task timing breakdown:
Section |  min time  |  avg time  |  max time  |%varavg| %total
---------------------------------------------------------------
Pair    | 18.222     | 22.134     | 25.95      |  38.0 | 26.23
Bond    | 0.0071282  | 0.0084861  | 0.012039   |   0.9 |  0.01
Kspace  | 35.482     | 39.169     | 42.952     |  29.1 | 46.43
Neigh   | 2.8316     | 2.8578     | 2.8879     |   0.9 |  3.39
Comm    | 10.799     | 11.744     | 12.757     |  11.8 | 13.92
Output  | 0.00024664 | 0.00033494 | 0.00092013 |   0.0 |  0.00
Modify  | 6.5214     | 7.2425     | 7.7722     |  11.4 |  8.58
Other   |            | 1.214      |            |       |  1.44

Nlocal:    24.625 ave 34 max 17 min
Histogram: 6 10 26 6 27 24 11 11 4 3
Nghost:    2917.34 ave 2954 max 2885 min
Histogram: 5 11 13 18 27 22 11 12 6 3
Neighs:    9271 ave 13451 max 5561 min
Histogram: 2 7 18 23 23 19 21 10 3 2

Total # of neighbors = 1186688
Ave neighs/atom = 376.487
Ave special neighs/atom = 1.90355
Neighbor list builds = 8617
Dangerous builds = 0
WARNING: New thermo_style command, previous thermo_modify settings will be lost (../output.cpp:705)
PPPM initialization ...
  extracting TIP4P info from pair style
  using 12-bit tables for long-range coulomb (../kspace.cpp:321)
  G vector (1/distance) = 0.310568
  grid = 30 30 30
  stencil order = 5
  estimated absolute RMS force accuracy = 0.00368126
  estimated relative force accuracy = 1.1086e-05
  using double precision FFTs
  3d grid and FFT values/proc = 2475 256
Setting up Verlet run ...
  Unit style    : real
  Current step  : 0
  Time step     : 2
[...]
98200000     300.3424    298.43469    444.28004   -12.898331   -20713.922    1925.7121    -18788.21 
98210000    296.65454    297.87487   -206.80759   -50.038106   -20609.519    1902.0666   -18707.452 
98220000    298.08526    297.25568   -331.70018    -100.1297   -20573.658      1911.24   -18662.418 
98230000    294.65033    297.70831    135.96805     7.850959   -20608.258    1889.2161   -18719.042 
98240000    299.66999    297.34112    94.194234    -73.83679   -20675.831    1921.4008    -18754.43 
98250000    294.90784    297.63524   -153.50535    63.351719   -20646.838    1890.8672   -18755.971 
98260000     299.6259    297.81644    902.63051   -8.4171796   -20581.033    1921.1181   -18659.915 
98270000    298.77491    298.66704    312.36717   -6.4452696   -20536.466    1915.6618   -18620.805 
98280000    295.90751    297.70264   -282.78987   -6.2260775   -20618.339    1897.2768   -18721.062 
98290000     303.5314    297.83448    260.84298   -56.111096   -20583.795    1946.1591   -18637.636 
98300000    304.77672    297.66839    97.386824   -54.880438   -20573.619    1954.1437   -18619.475 
98310000    290.98865    298.32183    93.924983   -24.952593   -20634.252    1865.7385   -18768.514 
98320000    303.78557    298.29321     918.8043   -63.713531   -20670.531    1947.7888   -18722.742 
98330000    308.97594    298.35947    220.89867   -88.985977   -20565.884     1981.068   -18584.816 
98340000    288.82297    297.51512    162.49504   -54.853053   -20593.487    1851.8527   -18741.634 
98350000    301.36636     297.6573    66.334164   -13.216372   -20608.635    1932.2774   -18676.357 
98360000    299.83156    298.29144   -12.573538    32.061587   -20599.559    1922.4367   -18677.122 
98370000     300.3291    297.93511    388.64765    32.751313   -20597.265    1925.6268   -18671.639 
98380000    301.80304    297.45754    472.24438    50.722108   -20651.069    1935.0773   -18715.992 
98390000    303.23933     297.7099   -202.11283   -16.550982   -20659.929    1944.2864   -18715.643 
98400000    298.18511    297.77268    563.17063   -45.087784   -20606.883    1911.8801   -18695.003 
98410000    300.49605    297.54906   -107.87199   -39.284094   -20586.729    1926.6973   -18660.032 
98420000    295.21723    297.74094   -968.54137      37.4774   -20627.244    1892.8509   -18734.393 
98430000    303.78933    298.01216    565.17732   -97.634372   -20655.203    1947.8129    -18707.39 
98440000    297.97149    297.67984   -551.36454   -14.007689   -20596.733    1910.5105   -18686.222 
98450000    306.84233    297.57949    1041.4485   -92.070597   -20681.031    1967.3879   -18713.643 
98460000     297.3985    298.10199    729.05717    -23.23886   -20648.832    1906.8366   -18741.996 
98470000    309.90436    298.14933   -314.46854    121.92239   -20672.332    1987.0207   -18685.311 
98480000    307.25135    298.03626   -85.322735    66.272335   -20474.754    1970.0104   -18504.743 
98490000    303.92902    298.22697   -452.07311   -65.022314   -20582.999    1948.7085    -18634.29 
98500000    304.49185    298.28787   -50.419742   -17.576496   -20734.408    1952.3173    -18782.09 
98510000    292.12527    297.81984   -193.24526   -7.5856851   -20676.609    1873.0261   -18803.583 
98520000    295.09919    297.68729   -122.91223   -124.35896   -20627.059    1892.0941   -18734.965 
98530000    300.31497    298.23781   -517.67406   -74.573801   -20663.042    1925.5363   -18737.506 
98540000    290.67274    297.71623     773.4416    -72.24356   -20568.359    1863.7129   -18704.646 
98550000    294.84525    298.06836   -62.236115    -102.8973   -20746.679    1890.4659   -18856.213 
98560000     304.2697    297.52261   -37.905212   -37.032815   -20668.325    1950.8929   -18717.433 
98570000    293.74486    297.83308    -146.6792    79.592642   -20687.011    1883.4105     -18803.6 
98580000    300.31841    298.48292    -343.3788   -20.653053   -20650.911    1925.5583   -18725.352 
98590000    310.04745    297.71657    26.647356    76.525643    -20633.93    1987.9382   -18645.991 
98600000    303.17575    298.31775   -27.368175    55.153665    -20621.18    1943.8788   -18677.301 
98610000    292.34473    297.74641   -180.02944    23.204258    -20573.97    1874.4333   -18699.536 
98620000    289.44591    298.10652    222.05311    36.179034   -20580.074    1855.8468   -18724.227 
98630000    302.92972    298.03289   -23.950588   -46.457846   -20580.517    1942.3013   -18638.216 
98640000     302.4341    298.12447   -532.09843   -21.974999   -20689.589    1939.1235   -18750.466 
98650000    296.23148    297.63289    468.69828   -56.168627   -20567.578     1899.354   -18668.224 
98660000    293.32754    298.05045   -39.413272   -15.736907   -20660.418    1880.7347   -18779.683 
98670000    297.11671    298.18327    199.70881   -56.241545   -20649.409    1905.0299   -18744.379 
98680000    305.00407    298.29108   -143.73192    58.624557   -20592.019    1955.6014   -18636.417 
98690000    304.13639    297.74544   -522.42377    53.602682   -20598.181    1950.0381   -18648.143 
98700000    294.16557    298.59626   -796.66734   -28.587095   -20630.623     1886.108   -18744.515 
98710000    292.43644    297.90218   -630.86872   -120.51409    -20625.57    1875.0213   -18750.549 
98720000    315.59463    297.94787    39.326876   -97.918045   -20609.169    2023.5052   -18585.664 
98730000    297.49742    298.08739   -287.02958   -95.637351   -20586.874    1907.4709   -18679.403 
98740000    296.37378    297.92645    158.49489   -108.93005   -20588.849    1900.2664   -18688.583 
98750000    288.14288    298.27403   -491.08527   -153.50411   -20557.468    1847.4922   -18709.975 
98760000    298.72052    298.22805   -250.29905   -113.30707     -20570.3    1915.3131   -18654.986 
98770000    298.43755    297.94278   -608.83316    48.069519   -20637.187    1913.4988   -18723.688 
98780000    286.46612    298.45741   -334.32086    12.304427   -20596.066    1836.7413   -18759.325 
98790000    297.58124    297.92088    604.07407     28.45534   -20621.149    1908.0083   -18713.141 
98800000    299.72775    298.28167   -675.97329   -41.946475   -20742.114    1921.7711   -18820.343 
98810000    305.04112    297.81999   -94.770851   -115.16816   -20610.368     1955.839   -18654.529 
98820000    305.26431    298.21924    401.82578   -24.328374   -20646.564      1957.27   -18689.294 
98830000    299.52922    297.89489   -695.32591   -41.502914   -20508.502    1920.4982   -18588.004 
98840000    299.54168    298.27697   -367.38578    2.8248166   -20782.759    1920.5781    -18862.18 
98850000    301.05728    297.81764    244.12096   -194.88387   -20619.311    1930.2957   -18689.015 
98860000    305.29835    298.37275   -150.36508   -31.584098   -20529.434    1957.4883   -18571.946 
98870000    293.17925    298.17243    655.07988   -49.390304   -20676.783    1879.7839   -18796.999 
98880000    298.63086    297.41245    317.88077   -122.63768   -20674.424    1914.7382   -18759.686 
98890000    308.24583    298.00615   -411.02923   -30.510313   -20571.855    1976.3867   -18595.469 
98900000    296.32391    298.09599    65.269713    -73.22983   -20678.372    1899.9467   -18778.425 
98910000    307.70644    297.67177    -170.8201    26.872092   -20691.669    1972.9283   -18718.741 
98920000    301.57609    298.55535   -354.43603   -4.9300246   -20614.508    1933.6222   -18680.886 
98930000    305.11284    297.97441    17.528314    43.643389   -20665.046    1956.2988   -18708.748 
98940000    295.13347     297.9749    564.65534    2.3966573   -20671.397    1892.3139   -18779.083 
98950000    296.25469    298.39441    202.96296     68.31509   -20581.567    1899.5029   -18682.064 
98960000    294.72015     297.2738   -486.97534    66.717335   -20585.612    1889.6638   -18695.948 
98970000    299.86502    297.38909   -349.52223    -85.84477   -20602.435    1922.6513   -18679.783 
98980000    298.39146     298.5179   -64.574257    26.000901   -20580.011    1913.2032   -18666.808 
98990000    294.10511     298.2848   -4.0660381    64.478689   -20551.799    1885.7203   -18666.078 
99000000    297.02037    298.37229    354.60495   -10.524875   -20673.072    1904.4122    -18768.66 
99010000    292.07926    298.07542    -738.1744    64.857839   -20633.305    1872.7311   -18760.574 
99020000    295.74595    298.62888   -610.64182   -41.152365   -20690.528     1896.241   -18794.287 
99030000    292.97547    297.61777   -258.10943   -33.451372   -20572.896    1878.4774   -18694.419 
99040000    305.40571    298.04618   -203.89391     8.118701   -20745.822    1958.1766   -18787.645 
99050000    302.68173    297.83869     117.4996   -30.738528   -20563.347    1940.7112   -18622.635 
99060000     296.1435    298.03725    226.64197   -67.498477   -20665.573    1898.7899   -18766.783 
99070000     294.9125    298.31665   -133.41897    5.1263372   -20641.032    1890.8971   -18750.135 
99080000    299.36154    298.15111    93.671007   -40.828914   -20626.696    1919.4231   -18707.273 
99090000     296.1105    298.08047    281.91065   -61.333851   -20613.482    1898.5783   -18714.904 
99100000    293.14255    297.94191   -887.01823   -95.851451   -20622.014    1879.5486   -18742.465 
99110000    297.50701     298.0735    170.12527    3.0325392   -20570.156    1907.5323   -18662.624 
99120000     286.9417    297.87945    152.90133    20.747825   -20620.444    1839.7905   -18780.653 
99130000    305.00495    297.69158     160.9174    81.633714   -20652.924    1955.6071   -18697.317 
99140000    291.88393    297.83699    347.03979    59.518251   -20640.716    1871.4787   -18769.237 
99150000    300.40204    297.76381    205.13368    63.299861   -20654.815    1926.0945    -18728.72 
99160000    299.01385    297.90848   -77.770705    43.111564   -20616.101    1917.1938   -18698.907 
99170000    293.77577    297.71868   -112.80716    55.001795   -20717.045    1883.6087   -18833.436 
99180000    298.78707     298.1395    710.95415    91.051504   -20665.778    1915.7398   -18750.039 
99190000    300.23169    297.98509   -127.43952    69.135549   -20595.068    1925.0023   -18670.065 
99200000    303.85427    297.76701    358.67723   -82.407473   -20640.676    1948.2292   -18692.447 
99210000    300.61013    298.22077   -113.94171   -62.616794   -20668.877    1927.4287   -18741.449 
99220000    307.10124    298.14845   -511.60441   -67.895374   -20665.811    1969.0479   -18696.763 
99230000    298.06427    297.74172    -33.88556    29.613593   -20623.203    1911.1053   -18712.098 
99240000    303.15157    298.03616   -81.607944   -55.676931   -20589.867    1943.7237   -18646.143 
99250000    296.56948     298.3715   -257.62551    103.72568   -20567.915    1901.5212   -18666.394 
99260000    293.83409    298.21928    468.58456   -31.963741   -20541.496    1883.9827   -18657.514 
99270000    304.43572    298.14633    26.265994   -20.647431   -20605.641    1951.9573   -18653.684 
99280000    291.74391    298.27877    81.809258    56.706103   -20535.697     1870.581   -18665.116 
99290000    295.60201     298.4764   -277.06271    -61.62101   -20537.168    1895.3181    -18641.85 
99300000    294.70053     297.4902    298.97561   -37.986282   -20546.503     1889.538   -18656.965 
99310000    293.31349    298.20678   -910.09513    43.443854   -20558.792    1880.6447   -18678.147 
99320000    292.06259     297.9333   -155.81253    28.134725   -20706.551    1872.6243   -18833.927 
99330000    308.28145    298.11076   -177.34405     7.917017   -20514.263    1976.6151   -18537.648 
99340000    304.43888     298.0859    335.43801   -4.9751979   -20590.205    1951.9776   -18638.228 
99350000    294.27684    298.21511   -195.32599    9.8608588   -20679.764    1886.8214   -18792.942 
99360000    298.04132    298.37384    422.31906   -79.088559   -20625.047    1910.9582   -18714.089 
99370000    292.48321    298.34448    538.31522    -43.57985   -20702.493    1875.3212   -18827.172 
99380000    298.57409    298.06297   -125.82338   -122.17234   -20613.314    1914.3742    -18698.94 
99390000    300.18397    297.98041   -687.01457    17.223369   -20699.779    1924.6963   -18775.083 
99400000    292.30366    297.54264   -257.81717   -4.7818343   -20621.618    1874.1699   -18747.448 
99410000    291.03156    298.27633    657.50327    46.743299   -20561.678    1866.0136   -18695.665 
99420000    303.33451    298.15795    145.84642   -6.5028578   -20601.741    1944.8967   -18656.844 
99430000    299.25102    298.04456   -376.55196    62.175998    -20657.44    1918.7145   -18738.726 
99440000    298.24452    298.16229    434.56842   -38.698289   -20590.539    1912.2611   -18678.278 
99450000    302.45484    297.75844    245.87872    92.108831   -20630.343    1939.2565   -18691.087 
99460000    297.75378    298.12906   -660.40315   -48.986773   -20654.229    1909.1146   -18745.115 
99470000    300.56026    297.78791    644.71479    22.576245   -20718.963     1927.109   -18791.854 
99480000    293.84677    298.34696    157.64395   -118.99309   -20609.374    1884.0639    -18725.31 
99490000    300.63661    298.14869   -483.81662    -125.7645   -20627.414    1927.5985   -18699.815 
99500000    299.74161    298.07033    -153.4414    23.387971   -20709.483      1921.86   -18787.623 
99510000    310.13991    298.07367    292.50358    103.12394   -20697.929     1988.531   -18709.398 
99520000    293.51188    298.23075   -543.23366    19.870905   -20604.433    1881.9167   -18722.516 
99530000    307.32205    298.04734    497.67033    30.707019   -20647.386    1970.4637   -18676.922 
99540000    300.74296    297.87147   -364.86733   -21.979398   -20614.778    1928.2803   -18686.498 
99550000    301.19904      298.023   -294.59992   -43.842466   -20586.959    1931.2046   -18655.754 
99560000    289.63844    297.73511   -457.82298   -36.839127   -20625.445    1857.0813   -18768.364 
99570000    296.62057    297.96192   -110.03417   -155.95915   -20621.863    1901.8488   -18720.015 
99580000    298.39327    298.32084   -175.70312   -107.41003   -20659.025    1913.2148   -18745.811 
99590000    295.89152    297.92847   -149.26215   -73.046871   -20642.261    1897.1743   -18745.087 
99600000     296.2782    297.68662    670.75569   -21.942164    -20593.34    1899.6536   -18693.686 
99610000    304.32961    298.04557    38.404771   -67.595722   -20538.666     1951.277   -18587.389 
99620000    297.20161     298.0762   -158.95576   -79.270846    -20726.38    1905.5742   -18820.806 
99630000    282.29016    297.66327     120.3582   -39.499563   -20539.465    1809.9662   -18729.499 
99640000    297.75074    297.64454    504.11368   -31.691184   -20628.192    1909.0951   -18719.097 
99650000    307.91851    297.75122   -208.73598   -160.10328    -20672.23     1974.288   -18697.942 
99660000    298.06551     297.9976    191.46582    34.381438   -20579.708    1911.1133   -18668.595 
99670000    302.67196    297.80457   -213.41652   -42.662363     -20589.1    1940.6486   -18648.451 
99680000    293.97165    298.25466   -244.21043   -6.8800511   -20753.061    1884.8646   -18868.196 
99690000    304.47988    298.13776   -310.85455    2.9864209   -20679.267    1952.2405   -18727.027 
99700000    300.12632     298.0842    1077.1875   -39.651203   -20641.648    1924.3267   -18717.321 
99710000    297.19987    298.25826   -364.55542   -11.494013   -20712.572    1905.5631   -18807.009 
99720000    303.49878    297.80581   -493.02414   -28.631373   -20645.722      1945.95   -18699.772 
99730000    294.86057     298.5586    730.58085   -13.794844    -20663.68    1890.5642   -18773.116 
99740000    293.14407      298.636    -524.9194   -26.177762   -20571.491    1879.5584   -18691.933 
99750000    302.11668    297.77012    202.50806   -90.306684   -20628.883    1937.0883   -18691.795 
99760000    293.90903    298.21507   -7.7475271    3.9142386   -20700.259    1884.4631   -18815.796 
99770000    289.35326    298.00486   -142.80039    20.010689   -20665.527    1855.2528   -18810.275 
99780000    300.35195    298.05455    527.10263   -30.233481   -20596.392    1925.7733   -18670.618 
99790000    294.75889    297.86912    -629.3745   -109.84483   -20634.812    1889.9122   -18744.899 
99800000    296.12196    298.06593   -634.12503   -76.570398    -20632.41    1898.6518   -18733.758 
99810000    297.02437    298.33869   -222.50756   -31.857318   -20536.528    1904.4378   -18632.091 
99820000    294.67523    297.66357    370.19627    -74.16828   -20590.835    1889.3758   -18701.459 
99830000    298.62266    298.49499   -162.33306   -49.839828   -20620.752    1914.6856   -18706.066 
99840000    297.66338    298.28131     345.6425    48.252306   -20688.064     1908.535   -18779.529 
99850000    298.16819    298.28473    -193.9009    53.751643   -20631.174    1911.7717   -18719.402 
99860000    296.85238    297.52759   -33.930818    51.460353    -20591.37     1903.335   -18688.035 
99870000     293.1652    297.51561   -320.37798     80.07188   -20647.911    1879.6939   -18768.217 
99880000    292.13352    297.60688   -44.741784    -1.515617   -20655.879     1873.079     -18782.8 
99890000    298.48326    297.70795   -742.39438     79.11925     -20548.8    1913.7918   -18635.008 
99900000    305.31514    298.97924    412.55732     97.22434   -20574.779    1957.5959   -18617.183 
99910000    295.18875    298.34722   -321.52397   -115.99838   -20687.195    1892.6683   -18794.526 
99920000    290.66611    297.69311   -291.39174   -121.11231   -20577.361    1863.6704    -18713.69 
99930000    296.40806    297.84582   -88.007087    38.800805   -20659.157    1900.4862   -18758.671 
99940000    296.34304     297.3635   -195.24703   -153.10352   -20537.674    1900.0693   -18637.604 
99950000    300.04586    297.99551    666.23735   -6.9312984   -20543.147    1923.8107   -18619.336 
99960000    305.23762    298.61092    224.73849   -6.9194528   -20674.238    1957.0989   -18717.139 
99970000    301.94197    298.16079   -160.62981    18.368324   -20670.283    1935.9681   -18734.315 
99980000     302.8948    297.81354    334.37794    95.944004   -20719.964    1942.0774   -18777.886 
99990000    301.49219    297.86444    126.19943   -22.145184   -20637.418    1933.0842   -18704.333 
100000000    302.17766    298.22992   -464.43297 -0.095218837   -20608.315    1937.4793   -18670.836 
Loop time of 93493.2 on 128 procs for 100000000 steps with 3152 atoms

Performance: 184.826 ns/day, 0.130 hours/ns, 1069.596 timesteps/s
99.3% CPU use with 128 MPI tasks x no OpenMP threads

MPI task timing breakdown:
Section |  min time  |  avg time  |  max time  |%varavg| %total
---------------------------------------------------------------
Pair    | 20171      | 23992      | 27258      |1182.7 | 25.66
Bond    | 8.816      | 10.188     | 14.771     |  29.6 |  0.01
Kspace  | 39312      | 42771      | 46540      | 891.7 | 45.75
Neigh   | 2981.2     | 3002.1     | 3023.1     |  20.4 |  3.21
Comm    | 11521      | 12437      | 13143      | 335.2 | 13.30
Output  | 3.9139     | 85.491     | 101        | 170.3 |  0.09
Modify  | 9099.2     | 9658.4     | 10267      | 325.9 | 10.33
Other   |            | 1538       |            |       |  1.64

Nlocal:    24.625 ave 32 max 16 min
Histogram: 2 7 2 23 13 26 28 14 10 3
Nghost:    2906.54 ave 2951 max 2859 min
Histogram: 6 4 8 9 28 27 26 14 4 2
Neighs:    9272.53 ave 14061 max 5822 min
Histogram: 4 8 23 28 25 22 10 6 1 1

Total # of neighbors = 1186884
Ave neighs/atom = 376.549
Ave special neighs/atom = 1.90355
Neighbor list builds = 8647990
Dangerous builds = 0

JOB STATISTICS
==============
Job ID: 2423579
Cluster: snellius
User/Group: phabibi/phabibi
State: RUNNING
Nodes: 1
Cores per node: 128
CPU Utilized: 00:00:00
CPU Efficiency: 0.00% of 154-17:10:24 core-walltime
Job Wall-clock time: 1-05:00:33
Memory Utilized: 0.00 MB (estimated maximum)
Memory Efficiency: 0.00% of 224.00 GB (1.75 GB/core)
WARNING: Efficiency statistics may be misleading for RUNNING jobs.
