LAMMPS (22 Aug 2018)
####################################################
# Transport properties of NaCl in water
#  at 298 K and 1 atm.
#################### SETTING UP ####################
units real
dimension 3
newton on
boundary p p p
atom_style full

#################### VARIABLES ####################
variable Temp equal 298       # Temperature in K
variable Pres equal 1.0       # Pressure in atm.

variable RandomSeed equal 600 # The random seed for velocity
variable tstep equal 2.0      # 2fs
variable Ninptpre equal 10000 # Pre-initialize the NPT ensemble (very small timesteps)
variable Ninpt equal 5000000    # Initialize the NPT ensemble
variable Npnpt equal 5000000  # Production in the NPT ensemble (volume)
variable Ninvtpre equal 10000 # Pre-initialize the NVT ensemble (very small timesteps)
variable Ninvt equal 100000   # Initialize the NVT ensemble
variable Npnvt equal 100000   # Production in the NVT ensemble (energy)
variable Nrun equal 100000000   # production in the NVE ensemble
variable Nf equal 10000       # Nfreq (fix ave/time and thermo)
variable Ne equal  10         # Nevery (fix ave/time)
variable Nr equal ${Nf}/${Ne} # Nrepeat (fix ave/time)
variable Nr equal 10000/${Ne} 
variable Nr equal 10000/10 
variable NBR equal ${Npnpt}/50 # Block averaging for density (NPT)
variable NBR equal 5000000/50 
variable Nd equal ${Npnvt}/10 # Frequency of outputting positions of atoms in the NVT ensemble
variable Nd equal 100000/10 

variable nb equal 10          # Number of blocks (fix ordern)
variable nbe equal 20         # Number of block elements (fix ordern)
variable Nvisc equal 5        # Nevery for viscosity (fix ordern: sample data at (Nvisc*2))
variable Ncond equal 5        # Nevery for Tconductivity (fix ordern: sample data at (Ncond*2))
variable Ndiff equal 1000     # Nevery for diffusivity (fix ordern: sample data at (Ndiff))
variable Nwrit equal 100000   # Nwrite for transport properties (fix ordern: write every (Nwrit))

variable Nrdfe equal 100      # Nevery for RDF (fix ave/time)
variable Nrdfw equal 1000     # Nwrite for RDF (compute rdf/ext: write every (Nrdfw*Nrdfe))
variable binnum equal 2000    # Number of bins for RDF

#################### ATOM DEFINITION and FORCEFIELD ####################
read_data ./data.lmp                     # read the positions
  orthogonal box = (0 0 0) to (34.309 34.309 34.309)
  4 by 4 by 8 MPI processor grid
  reading atoms ...
  3216 atoms
  scanning bonds ...
  2 = max bonds/atom
  scanning angles ...
  1 = max angles/atom
  reading bonds ...
  2000 bonds
  reading angles ...
  1000 angles
  2 = max # of 1-2 neighbors
  1 = max # of 1-3 neighbors
  1 = max # of 1-4 neighbors
  2 = max # of special neighbors
include ./forcefield.data                  # read the force field
#--------INTERMOLECULAR POTENTIAL -------------------#
# ---------------Developed for NaCl in water (tip4p/2005) system-----

mass 1 15.9994 # Ow
mass 2 1.00794 # Hw
mass 3 22.9897 # Na
mass 4 35.4527 # Cl

pair_style lj/cut/tip4p/long 1 2 1 1 0.1546 10.0

kspace_style pppm/tip4p 1.0e-5
pair_modify tail yes # ATC i

#-----------------Combinations----------------------------
# atomtype atomtype epsilon sigma

pair_coeff 1 1 0.1851 3.1589     # Ow-Ow
pair_coeff 1 2 0.0000 0.0000     # Ow-Hw
pair_coeff 1 3 0.1895 2.38725     # Ow-Na
pair_coeff 1 4 0.0148 4.07631     # Ow-Cl

pair_coeff 2 2 0.0000 0.0000     # Hw-Hw
pair_coeff 2 3 0.0000 0.0000     # Hw-Na
pair_coeff 2 4 0.0000 0.0000     # Hw-Cl

pair_coeff 3 3 0.3517 2.21737     # Na-Na
pair_coeff 3 4 0.3437 2.58012     # Na-Cl

pair_coeff 4 4 0.01837 4.69906     # Cl-Cl

bond_style  harmonic
bond_coeff 1 1000 0.9572          # Ow-Hw

angle_style harmonic
angle_coeff 1 100 104.52          # H-O-H

#dihedral_style none
#improper_style none

set type 1 charge -1.1128        # O
  1000 settings made for charge
set type 2 charge +0.5564        # OH
  2000 settings made for charge
set type 3 charge +0.7500        # Na
  108 settings made for charge
set type 4 charge -0.7500        # Cl
  108 settings made for charge


#################### INITIALIZATION ####################
# groups for the central atoms of water (O)
group wat type 1      # The Oxygen of WATER molecules
1000 atoms in group wat
group Na type 3
108 atoms in group Na
group Cl type 4
108 atoms in group Cl

# neigbor lists
neighbor 2.0 bin
neigh_modify every 1 delay 0 check yes

# velocity-Verlet integrator
run_style verlet

# minimizing the system using the conjugate gradient method
min_style cg
min_modify dmax 0.05
minimize 1.0e-6 1.0e-6 1000 10000
PPPM initialization ...
  extracting TIP4P info from pair style
  using 12-bit tables for long-range coulomb (../kspace.cpp:321)
  G vector (1/distance) = 0.31012
  grid = 32 32 32
  stencil order = 5
  estimated absolute RMS force accuracy = 0.00343213
  estimated relative force accuracy = 1.03358e-05
  using double precision FFTs
  3d grid and FFT values/proc = 2475 256
Neighbor list info ...
  update every 1 steps, delay 0 steps, check yes
  max neighbors/atom: 2000, page size: 100000
  master list distance cutoff = 12.3092
  ghost atom cutoff = 12.3092
  binsize = 6.1546, bins = 6 6 6
  1 neighbor lists, perpetual/occasional/extra = 1 0 0
  (1) pair lj/cut/tip4p/long, perpetual
      attributes: half, newton on
      pair build: half/bin/newton
      stencil: half/bin/3d/newton
      bin: standard
Per MPI rank memory allocation (min/avg/max) = 8.192 | 8.263 | 8.456 Mbytes
Step Temp E_pair E_mol TotEng Press 
       0            0   -508.62972 3.5803898e-05   -508.62968    24860.233 
    1000            0   -26835.306    374.37527    -26460.93   -5056.9035 
Loop time of 1.43587 on 128 procs for 1000 steps with 3216 atoms

99.0% CPU use with 128 MPI tasks x no OpenMP threads

Minimization stats:
  Stopping criterion = max iterations
  Energy initial, next-to-last, final = 
        -508.629684005      -26460.785504     -26460.9303589
  Force two-norm initial, final = 2129.06 26.8163
  Force max component initial, final = 241.5 7.50507
  Final line search alpha, max atom move = 0.00651646 0.0489065
  Iterations, force evaluations = 1000 1766

MPI task timing breakdown:
Section |  min time  |  avg time  |  max time  |%varavg| %total
---------------------------------------------------------------
Pair    | 0.12283    | 0.34893    | 0.5605     |  14.8 | 24.30
Bond    | 0.00086259 | 0.0016104  | 0.0023225  |   0.7 |  0.11
Kspace  | 0.60731    | 0.82738    | 1.0453     |   9.7 | 57.62
Neigh   | 0.0067254  | 0.0072858  | 0.00749    |   0.2 |  0.51
Comm    | 0.14942    | 0.17028    | 0.1897     |   2.4 | 11.86
Output  | 0.00010474 | 0.00010812 | 0.00011158 |   0.0 |  0.01
Modify  | 0          | 0          | 0          |   0.0 |  0.00
Other   |            | 0.08027    |            |       |  5.59

Nlocal:    25.125 ave 38 max 10 min
Histogram: 4 3 8 16 17 25 29 11 10 5
Nghost:    2498.99 ave 2630 max 2425 min
Histogram: 6 36 35 14 5 0 7 10 12 3
Neighs:    7912.68 ave 12791 max 2554 min
Histogram: 6 4 11 18 19 23 14 19 7 7

Total # of neighbors = 1012823
Ave neighs/atom = 314.933
Ave special neighs/atom = 1.86567
Neighbor list builds = 21
Dangerous builds = 0
reset_timestep 0

# initializing velocities
velocity all create ${Temp} ${RandomSeed}
velocity all create 298 ${RandomSeed}
velocity all create 298 600

# rate of writing thermal properties to the log file
thermo ${Nf}
thermo 10000

#################### 1) Initialize the NPT ensemble ####################
# applying the shake algorithm for rigid molecules and the NPT solver
fix constrain all shake 1.0e-6 1000 0 b 1 a 1
  0 = # of size 2 clusters
  0 = # of size 3 clusters
  0 = # of size 4 clusters
  1000 = # of frozen angles
fix integrate all npt temp ${Temp} ${Temp} 10.0 iso ${Pres} ${Pres} 100.0
fix integrate all npt temp 298 ${Temp} 10.0 iso ${Pres} ${Pres} 100.0
fix integrate all npt temp 298 298 10.0 iso ${Pres} ${Pres} 100.0
fix integrate all npt temp 298 298 10.0 iso 1 ${Pres} 100.0
fix integrate all npt temp 298 298 10.0 iso 1 1 100.0


# Initializing the whole system with very small timesteps in the NPT ensemble
timestep 0.001
run ${Ninptpre}
run 10000
PPPM initialization ...
  extracting TIP4P info from pair style
  using 12-bit tables for long-range coulomb (../kspace.cpp:321)
  G vector (1/distance) = 0.31012
  grid = 32 32 32
  stencil order = 5
  estimated absolute RMS force accuracy = 0.00343213
  estimated relative force accuracy = 1.03358e-05
  using double precision FFTs
  3d grid and FFT values/proc = 2475 256
Per MPI rank memory allocation (min/avg/max) = 7.942 | 8.1 | 8.207 Mbytes
Step Temp E_pair E_mol TotEng Press Volume 
       0    432.53725   -26835.306            0   -23979.481    1851521.2    40385.253 
   10000    179.64177   -25236.926            0   -24050.842    1033.7641    40127.097 
Loop time of 9.35219 on 128 procs for 10000 steps with 3216 atoms

Performance: 0.092 ns/day, 259.783 hours/ns, 1069.268 timesteps/s
99.4% CPU use with 128 MPI tasks x no OpenMP threads

MPI task timing breakdown:
Section |  min time  |  avg time  |  max time  |%varavg| %total
---------------------------------------------------------------
Pair    | 0.64617    | 2.3336     | 3.8727     |  46.7 | 24.95
Bond    | 0.00092135 | 0.0010632  | 0.0018618  |   0.4 |  0.01
Kspace  | 3.2091     | 4.7991     | 6.4707     |  32.6 | 51.32
Neigh   | 0          | 0          | 0          |   0.0 |  0.00
Comm    | 0.78884    | 0.91935    | 1.0486     |   6.6 |  9.83
Output  | 9.2563e-05 | 9.5055e-05 | 9.8704e-05 |   0.0 |  0.00
Modify  | 1.1133     | 1.1799     | 1.2341     |   2.5 | 12.62
Other   |            | 0.1191     |            |       |  1.27

Nlocal:    25.125 ave 37 max 9 min
Histogram: 2 2 7 13 12 30 30 15 10 7
Nghost:    2499.99 ave 2630 max 2423 min
Histogram: 3 37 33 18 4 1 8 10 11 3
Neighs:    7913.66 ave 12834 max 2240 min
Histogram: 4 5 8 15 24 23 18 16 8 7

Total # of neighbors = 1012948
Ave neighs/atom = 314.971
Ave special neighs/atom = 1.86567
Neighbor list builds = 0
Dangerous builds = 0
timestep 0.01
run ${Ninptpre}
run 10000
PPPM initialization ...
  extracting TIP4P info from pair style
  using 12-bit tables for long-range coulomb (../kspace.cpp:321)
  G vector (1/distance) = 0.310274
  grid = 32 32 32
  stencil order = 5
  estimated absolute RMS force accuracy = 0.00341035
  estimated relative force accuracy = 1.02702e-05
  using double precision FFTs
  3d grid and FFT values/proc = 2475 256
Per MPI rank memory allocation (min/avg/max) = 7.942 | 8.102 | 8.207 Mbytes
Step Temp E_pair E_mol TotEng Press Volume 
   10000    179.64177   -25236.926            0   -24050.843   -128658.21    40127.097 
   20000    297.88518   -23897.629            0   -21930.844   -617.21856    40379.354 
Loop time of 9.2636 on 128 procs for 10000 steps with 3216 atoms

Performance: 0.933 ns/day, 25.732 hours/ns, 1079.494 timesteps/s
99.4% CPU use with 128 MPI tasks x no OpenMP threads

MPI task timing breakdown:
Section |  min time  |  avg time  |  max time  |%varavg| %total
---------------------------------------------------------------
Pair    | 0.67146    | 2.3203     | 3.7338     |  45.2 | 25.05
Bond    | 0.00091912 | 0.0010703  | 0.0018477  |   0.4 |  0.01
Kspace  | 3.3255     | 4.763      | 6.4165     |  31.6 | 51.42
Neigh   | 0.0012186  | 0.0012589  | 0.0012955  |   0.1 |  0.01
Comm    | 0.79811    | 0.92004    | 1.0504     |   6.3 |  9.93
Output  | 9.614e-05  | 9.9822e-05 | 0.00010441 |   0.0 |  0.00
Modify  | 1.0767     | 1.1521     | 1.214      |   2.6 | 12.44
Other   |            | 0.1057     |            |       |  1.14

Nlocal:    25.125 ave 36 max 9 min
Histogram: 2 4 3 10 21 21 25 21 13 8
Nghost:    2480.27 ave 2608 max 2419 min
Histogram: 20 36 28 9 3 1 14 4 8 5
Neighs:    7852.86 ave 12336 max 2319 min
Histogram: 5 2 11 17 14 25 20 16 12 6

Total # of neighbors = 1005166
Ave neighs/atom = 312.552
Ave special neighs/atom = 1.86567
Neighbor list builds = 4
Dangerous builds = 0
timestep 0.1
run ${Ninptpre}
run 10000
PPPM initialization ...
  extracting TIP4P info from pair style
  using 12-bit tables for long-range coulomb (../kspace.cpp:321)
  G vector (1/distance) = 0.310124
  grid = 32 32 32
  stencil order = 5
  estimated absolute RMS force accuracy = 0.00343163
  estimated relative force accuracy = 1.03343e-05
  using double precision FFTs
  3d grid and FFT values/proc = 2475 256
Per MPI rank memory allocation (min/avg/max) = 7.942 | 8.108 | 8.207 Mbytes
Step Temp E_pair E_mol TotEng Press Volume 
   20000    297.88518   -23897.629            0   -21930.844   -21397.984    40379.354 
   30000    307.68952   -24056.327            0   -22024.809    783.35384    34911.223 
Loop time of 9.94145 on 128 procs for 10000 steps with 3216 atoms

Performance: 8.691 ns/day, 2.762 hours/ns, 1005.890 timesteps/s
99.4% CPU use with 128 MPI tasks x no OpenMP threads

MPI task timing breakdown:
Section |  min time  |  avg time  |  max time  |%varavg| %total
---------------------------------------------------------------
Pair    | 1.207      | 2.5839     | 3.7289     |  31.1 | 25.99
Bond    | 0.00093496 | 0.0010852  | 0.0017418  |   0.4 |  0.01
Kspace  | 3.4427     | 4.6203     | 5.9938     |  23.0 | 46.48
Neigh   | 0.01452    | 0.014823   | 0.015135   |   0.1 |  0.15
Comm    | 0.85101    | 1.0173     | 1.3947     |  11.8 | 10.23
Output  | 9.8774e-05 | 0.00010312 | 0.00010733 |   0.0 |  0.00
Modify  | 1.1892     | 1.5902     | 1.6914     |   9.7 | 16.00
Other   |            | 0.1137     |            |       |  1.14

Nlocal:    25.125 ave 32 max 16 min
Histogram: 3 6 5 19 15 16 24 15 15 10
Nghost:    2808.93 ave 2835 max 2788 min
Histogram: 4 13 19 19 27 17 14 6 3 6
Neighs:    9002.55 ave 13376 max 5089 min
Histogram: 4 7 9 29 19 28 17 11 3 1

Total # of neighbors = 1152326
Ave neighs/atom = 358.31
Ave special neighs/atom = 1.86567
Neighbor list builds = 47
Dangerous builds = 0
timestep 0.2
run ${Ninptpre}
run 10000
PPPM initialization ...
  extracting TIP4P info from pair style
  using 12-bit tables for long-range coulomb (../kspace.cpp:321)
  G vector (1/distance) = 0.308967
  grid = 30 30 30
  stencil order = 5
  estimated absolute RMS force accuracy = 0.00396529
  estimated relative force accuracy = 1.19414e-05
  using double precision FFTs
  3d grid and FFT values/proc = 2475 256
Per MPI rank memory allocation (min/avg/max) = 7.948 | 8.162 | 8.216 Mbytes
Step Temp E_pair E_mol TotEng Press Volume 
   30000    307.68952   -24056.329            0    -22024.81    1610.9776    34911.223 
   40000    303.17198   -24401.334            0   -22399.643     -426.573    34031.454 
Loop time of 9.91253 on 128 procs for 10000 steps with 3216 atoms

Performance: 17.432 ns/day, 1.377 hours/ns, 1008.824 timesteps/s
99.4% CPU use with 128 MPI tasks x no OpenMP threads

MPI task timing breakdown:
Section |  min time  |  avg time  |  max time  |%varavg| %total
---------------------------------------------------------------
Pair    | 1.9954     | 2.7991     | 3.6407     |  22.1 | 28.24
Bond    | 0.00093729 | 0.001093   | 0.0017859  |   0.4 |  0.01
Kspace  | 3.7295     | 4.5647     | 5.3375     |  17.1 | 46.05
Neigh   | 0.030543   | 0.031223   | 0.031864   |   0.3 |  0.31
Comm    | 0.98346    | 1.1002     | 1.229      |   5.3 | 11.10
Output  | 0.000135   | 0.0001386  | 0.00014281 |   0.0 |  0.00
Modify  | 1.0503     | 1.2522     | 1.3409     |   6.1 | 12.63
Other   |            | 0.1639     |            |       |  1.65

Nlocal:    25.125 ave 33 max 18 min
Histogram: 6 7 12 16 28 17 25 4 10 3
Nghost:    2873.38 ave 2901 max 2828 min
Histogram: 2 7 4 4 9 24 33 18 18 9
Neighs:    9250.02 ave 13437 max 5784 min
Histogram: 3 7 17 28 25 14 24 5 4 1

Total # of neighbors = 1184003
Ave neighs/atom = 368.16
Ave special neighs/atom = 1.86567
Neighbor list builds = 97
Dangerous builds = 0
timestep 0.5
run ${Ninptpre}
run 10000
PPPM initialization ...
  extracting TIP4P info from pair style
  using 12-bit tables for long-range coulomb (../kspace.cpp:321)
  G vector (1/distance) = 0.309583
  grid = 30 30 30
  stencil order = 5
  estimated absolute RMS force accuracy = 0.00386593
  estimated relative force accuracy = 1.16421e-05
  using double precision FFTs
  3d grid and FFT values/proc = 2475 256
Per MPI rank memory allocation (min/avg/max) = 7.949 | 8.194 | 8.217 Mbytes
Step Temp E_pair E_mol TotEng Press Volume 
   40000    303.17198   -24401.336            0   -22399.644   -2055.1008    34031.454 
   50000    300.94428   -24554.117            0   -22567.134    392.70209    33776.945 
Loop time of 9.77638 on 128 procs for 10000 steps with 3216 atoms

Performance: 44.188 ns/day, 0.543 hours/ns, 1022.874 timesteps/s
99.4% CPU use with 128 MPI tasks x no OpenMP threads

MPI task timing breakdown:
Section |  min time  |  avg time  |  max time  |%varavg| %total
---------------------------------------------------------------
Pair    | 2.0318     | 2.8513     | 3.6798     |  21.1 | 29.17
Bond    | 0.00094636 | 0.0010964  | 0.0019671  |   0.5 |  0.01
Kspace  | 3.5757     | 4.3852     | 5.226      |  16.9 | 44.85
Neigh   | 0.077599   | 0.079513   | 0.081273   |   0.5 |  0.81
Comm    | 0.99346    | 1.1194     | 1.261      |   5.9 | 11.45
Output  | 9.7382e-05 | 0.0001001  | 0.00011533 |   0.0 |  0.00
Modify  | 0.98624    | 1.1921     | 1.2873     |   6.5 | 12.19
Other   |            | 0.1477     |            |       |  1.51

Nlocal:    25.125 ave 35 max 18 min
Histogram: 6 18 17 18 25 20 8 9 5 2
Nghost:    2894.62 ave 2930 max 2866 min
Histogram: 5 11 20 16 22 22 20 7 3 2
Neighs:    9319.28 ave 14661 max 5219 min
Histogram: 2 9 22 25 27 22 11 5 4 1

Total # of neighbors = 1192868
Ave neighs/atom = 370.917
Ave special neighs/atom = 1.86567
Neighbor list builds = 239
Dangerous builds = 0
reset_timestep 0

# continuing the initialization with the final value of timestep
unfix integrate
fix integrate all npt temp ${Temp} ${Temp} 100.0 iso ${Pres} ${Pres} 1000.0
fix integrate all npt temp 298 ${Temp} 100.0 iso ${Pres} ${Pres} 1000.0
fix integrate all npt temp 298 298 100.0 iso ${Pres} ${Pres} 1000.0
fix integrate all npt temp 298 298 100.0 iso 1 ${Pres} 1000.0
fix integrate all npt temp 298 298 100.0 iso 1 1 1000.0
#fix integrate all rigid/npt/small molecule temp ${Temp} ${Temp} 100.0 iso ${Pres} ${Pres} 1000.0

timestep ${tstep}
timestep 2
run ${Ninpt}
run 5000000
PPPM initialization ...
  extracting TIP4P info from pair style
  using 12-bit tables for long-range coulomb (../kspace.cpp:321)
  G vector (1/distance) = 0.309764
  grid = 30 30 30
  stencil order = 5
  estimated absolute RMS force accuracy = 0.00383719
  estimated relative force accuracy = 1.15556e-05
  using double precision FFTs
  3d grid and FFT values/proc = 2475 256
Per MPI rank memory allocation (min/avg/max) = 7.965 | 8.208 | 8.217 Mbytes
Step Temp E_pair E_mol TotEng Press Volume 
       0    300.94428   -24554.117            0   -22567.134   -50.725503    33776.945 
   10000    303.13436   -24431.184            0   -22429.741   -1705.2882    34092.241 
   20000    300.37227   -24443.287            0   -22460.081    -74.42919    33881.174 
   30000    296.74098   -24436.295            0   -22477.065   -631.92758    33895.959 
   40000    295.26273   -24496.089            0   -22546.619    53.307005    33963.631 
   50000    297.92343   -24367.955            0   -22400.917   -270.47264    33993.225 
   60000    302.24998   -24583.232            0   -22587.629   -304.13057    33936.246 
   70000    299.06173   -24465.138            0   -22490.584    298.06854     33932.79 
   80000    300.92454   -24404.001            0   -22417.148    71.759932    33992.146 
   90000    300.29922   -24398.617            0   -22415.893   -350.94001    34034.262 
  100000    300.47615   -24471.091            0   -22487.198   -190.63704    33975.731 
  110000    306.92017   -24594.015            0   -22567.576    522.12152      33750.7 
  120000    295.69505   -24531.691            0   -22579.366    837.14383    33534.337 
  130000    299.73282   -24524.588            0   -22545.604    177.00022    33735.079 
  140000    300.89892   -24422.311            0   -22435.628   -109.99247    33769.849 
  150000     311.8173   -24481.394            0   -22422.622    284.15042    33617.283 
  160000     292.9839    -24575.95            0   -22641.526    830.78508    33395.556 
  170000    302.22147   -24436.503            0   -22441.087    311.84127     33958.35 
  180000    298.90848   -24504.485            0   -22530.943    67.679374    33774.621 
  190000    300.45726   -24459.682            0   -22475.915    297.64318    33683.802 
  200000    303.13237   -24448.417            0   -22446.987   -106.41982    33739.654 
  210000    305.26472   -24552.385            0   -22536.876    978.28565    33855.081 
  220000     297.0826   -24530.489            0   -22569.003    1080.6117    34001.188 
  230000    296.94441   -24526.409            0   -22565.836    347.20617    33669.585 
  240000    296.37649   -24370.845            0   -22414.021   -241.20767    34046.436 
  250000    298.88352   -24430.917            0    -22457.54     103.7312    33614.093 
  260000    304.78206   -24615.147            0   -22602.825   -208.86075    33795.118 
  270000    311.12556   -24568.604            0   -22514.399    832.30793    33843.503 
  280000    294.54659    -24441.22            0   -22496.478   -753.33499    34246.701 
  290000    284.96549   -24528.162            0   -22646.679    850.64407    33592.768 
  300000    301.03965   -24510.215            0   -22522.602   -480.78897    33779.805 
  310000    296.71232   -24505.855            0   -22546.813   -962.21382    33493.015 
  320000    299.49266   -24515.537            0   -22538.138      -715.15    33868.553 
  330000    298.57383   -24483.519            0   -22512.187   -617.15955    33867.033 
  340000    294.14653   -24449.059            0   -22506.958    413.26213     33875.27 
  350000    302.19388   -24604.721            0   -22609.488    274.88071    33859.968 
  360000    303.65071   -24460.311            0   -22455.459   -115.16707    34167.647 
  370000    294.59381   -24624.323            0    -22679.27    490.78814    33723.367 
  380000    297.83412   -24615.921            0   -22649.473    406.69941    33939.518 
  390000    301.48028   -24561.275            0   -22570.754   -211.87549    34050.304 
  400000    297.15864   -24610.628            0    -22648.64   -447.86598    33873.238 
  410000    298.42847   -24568.649            0   -22598.276   -281.30543    33974.984 
  420000    304.31088   -24512.712            0   -22503.501    -78.00489    33880.935 
  430000    301.33742   -24448.709            0   -22459.131   -470.68076    34062.071 
  440000    287.11028   -24485.323            0   -22589.679   -750.80089    34423.734 
  450000    299.66741   -24466.884            0   -22488.332     52.40105    33980.717 
  460000    296.30235   -24385.014            0    -22428.68    158.24309    33925.282 
  470000    309.10719   -24535.071            0   -22494.192    571.64891    33506.211 
  480000    290.74119   -24425.069            0   -22505.452   -841.94082    33976.113 
  490000    291.17803   -24527.857            0   -22605.356     297.4534    33864.659 
  500000     297.6005   -24596.468            0   -22631.563     744.4715    33379.509 
  510000    303.70956   -24529.689            0   -22524.449    1274.4689    33622.124 
  520000    291.56641   -24472.664            0   -22547.598   -388.84232    33712.819 
  530000    312.02416   -24512.369            0   -22452.231    1312.4998     33340.02 
  540000    299.27006   -24517.113            0   -22541.184   -144.72781    33613.149 
  550000    296.63046   -24514.843            0   -22556.342   -390.65348    33663.281 
  560000    296.86848   -24465.708            0   -22505.635    66.141302    34127.723 
  570000    293.31608   -24492.728            0   -22556.111    168.92879    33617.835 
  580000    294.32363   -24494.555            0   -22551.285   -342.00508    33674.987 
  590000    297.03763   -24439.334            0   -22478.144   -798.92954    34228.564 
  600000    298.82379   -24568.778            0   -22595.796    789.47779    33721.037 
  610000    300.12675   -24622.178            0   -22640.593    962.93902    33193.411 
  620000    301.10824   -24465.374            0   -22477.308   -194.01008     34469.55 
  630000    296.53514   -24466.778            0   -22508.906   -52.011969    33990.265 
  640000    289.47252   -24402.679            0   -22491.438   -249.89465    34169.845 
  650000    300.41145   -24492.419            0   -22508.954    575.59007    33646.654 
  660000     298.6001   -24529.242            0   -22557.736      319.639    34058.212 
  670000    290.05926   -24426.006            0   -22510.891   -609.93657    34113.701 
  680000    302.90759   -24623.995            0   -22624.049   -743.06631    33853.039 
  690000    300.57639   -24534.088            0   -22549.535   -1083.7852    33882.101 
  700000    288.71048   -24535.502            0   -22629.292   -389.01146    34190.684 
  710000    300.43229   -24530.249            0   -22546.646     352.7251    33771.347 
  720000    296.29565   -24489.684            0   -22533.393   -352.78805    34003.324 
  730000    297.64631   -24433.861            0   -22468.653    395.48542    33736.174 
  740000    293.31164   -24530.552            0   -22593.964    387.65521     33498.01 
  750000    304.92254   -24555.912            0   -22542.663   -141.23507    33576.918 
  760000    292.41649   -24583.723            0   -22653.045   -1105.3473    34101.324 
  770000    300.07777   -24517.638            0   -22536.376    601.26804     33491.39 
  780000     299.1728   -24544.498            0   -22569.211    318.77333    33613.805 
  790000     291.7999   -24552.514            0   -22625.907    -386.6692    33587.257 
  800000    302.45674   -24540.169            0     -22543.2    295.77778    33666.592 
  810000    304.98317   -24554.095            0   -22540.445   -640.21103    34257.414 
  820000    290.90881   -24565.506            0   -22644.782    1143.9275    33491.923 
  830000    304.92177    -24429.55            0   -22416.306   -128.56524    33748.391 
  840000    297.75113   -24458.713            0   -22492.812    76.345631    33790.929 
  850000    299.53591   -24383.619            0   -22405.935   -160.91884    33930.566 
  860000    299.09577   -24559.051            0   -22584.273    631.13889    33728.723 
  870000    302.39494   -24446.459            0   -22449.898   -351.66123    33775.174 
  880000    304.07554   -24510.673            0   -22503.016   -99.283417    33644.184 
  890000    294.73166   -24547.662            0   -22601.698     524.2891    33811.604 
  900000    292.40986    -24472.19            0   -22541.556    436.08737    34076.639 
  910000    301.21452   -24414.075            0   -22425.308   -132.10832    33894.455 
  920000    295.34486   -24434.192            0   -22484.179     485.6937    33734.836 
  930000    286.71544   -24528.246            0   -22635.209   -138.65883     33730.11 
  940000    300.20329   -24467.656            0   -22485.565    251.01825    33694.877 
  950000    291.66667   -24507.872            0   -22582.144    568.13466    33623.059 
  960000    297.34583   -24543.954            0    -22580.73    529.11716    33339.319 
  970000     297.9441   -24452.447            0   -22485.273    511.42283    33420.158 
  980000    294.40011   -24458.016            0   -22514.241   -319.62241    33958.029 
  990000    304.43435   -24452.008            0   -22441.982   -622.61124    34041.732 
 1000000    293.77684   -24437.436            0   -22497.776    80.501915    33596.927 
 1010000      298.238    -24444.85            0   -22475.735    449.99965    33946.926 
 1020000    297.56404   -24517.275            0    -22552.61    148.68368    33997.292 
 1030000    298.59975   -24508.882            0   -22537.379    614.68955    33891.519 
 1040000    291.61442   -24509.721            0   -22584.338     28.43975    33886.141 
 1050000    302.55432   -24553.773            0    -22556.16    441.22959    33542.541 
 1060000    292.62691   -24592.932            0   -22660.864   -53.420266    34087.309 
 1070000    302.94281   -24493.256            0   -22493.078    916.67144    33465.865 
 1080000    299.89507   -24456.095            0    -22476.04   -273.38905    34072.527 
 1090000      294.993    -24531.87            0    -22584.18     574.0122      33423.2 
 1100000    298.02723   -24527.136            0   -22559.413    931.09855     33764.57 
 1110000    295.69635   -24545.064            0   -22592.731    -75.38242    33779.673 
 1120000    296.13628   -24554.787            0   -22599.549    270.85127     33610.93 
 1130000    302.40073   -24475.128            0   -22478.529    1426.3012    33380.434 
 1140000    300.80383   -24462.864            0   -22476.808    1017.4268    33798.529 
 1150000    299.58727   -24575.177            0   -22597.153    1163.1714    33561.581 
 1160000     296.2817   -24414.743            0   -22458.545   -354.70586    34276.095 
 1170000    305.98444   -24507.517            0   -22487.256    489.87225    33559.682 
 1180000    297.62451   -24565.598            0   -22600.534   -142.30693    33789.803 
 1190000    291.51652   -24421.449            0   -22496.713   -29.453296    33987.379 
 1200000    303.44185   -24420.968            0   -22417.495   -217.87889     33930.67 
 1210000    292.67463   -24493.414            0   -22561.031    514.14568    33748.161 
 1220000    311.21706   -24529.407            0   -22474.599      303.916    33707.987 
 1230000    308.77893   -24384.868            0   -22346.157   -542.86622    34188.831 
 1240000    308.88586   -24692.393            0   -22652.976   -118.81648    33371.884 
 1250000    299.03398   -24535.928            0   -22561.557   -427.52215    33893.679 
 1260000    300.91364   -24519.315            0   -22532.534   -419.92676    34059.853 
 1270000    295.62754   -24476.755            0   -22524.876    663.94321    33852.913 
 1280000    301.43487   -24606.895            0   -22616.673     10.25518    33875.643 
 1290000    297.63751     -24615.1            0    -22649.95   -96.495924    33894.288 
 1300000    285.11733   -24563.317            0   -22680.831   -90.022577    33753.515 
 1310000    306.48476   -24520.857            0   -22497.293    346.16549    33402.376 
 1320000    306.38509   -24501.345            0   -22478.439    421.13349    33883.167 
 1330000    311.01411   -24546.932            0   -22493.463   -691.87172    34540.508 
 1340000    289.91735   -24550.933            0   -22636.755   -201.50562    33963.474 
 1350000    300.53763   -24489.968            0    -22505.67   -87.607441    33891.801 
 1360000    292.46259    -24502.83            0   -22571.847    478.97597    34158.809 
 1370000    306.61698    -24464.98            0   -22440.544    693.50661    33990.281 
 1380000    301.54191   -24516.537            0   -22525.608    448.25343    34088.001 
 1390000    299.84359   -24548.428            0   -22568.712   -244.49717    33816.567 
 1400000    300.19872   -24486.972            0   -22504.912    59.254625    34131.818 
 1410000    302.52997   -24499.136            0   -22501.683    801.13023    33278.004 
 1420000    305.73979   -24473.178            0   -22454.532    137.18867    33654.879 
 1430000    292.66443   -24403.425            0    -22471.11   -67.971171    33611.507 
 1440000    299.56636   -24515.914            0   -22538.029    88.060988    33692.599 
 1450000    295.62454   -24477.324            0   -22525.464   -667.17111    33961.208 
 1460000    301.50344   -24528.143            0   -22537.468   -187.18222     34020.79 
 1470000    294.37989   -24507.674            0   -22564.033   -526.87357    33833.537 
 1480000    289.29614   -24482.731            0   -22572.654     998.6188    33446.838 
 1490000    294.12369   -24484.997            0   -22543.047   -580.07544    33692.096 
 1500000    310.35206   -24575.333            0   -22526.235   -128.51372    33747.715 
 1510000     307.0113   -24507.233            0   -22480.193   -353.30555    33821.225 
 1520000    299.43879   -24484.441            0   -22507.398    243.62784    33568.558 
 1530000    291.93367   -24434.068            0   -22506.578   -198.18034    33951.995 
 1540000    290.75836   -24517.404            0   -22597.673    73.803521    33674.718 
 1550000    295.90384   -24484.528            0   -22530.824    99.376136    33794.924 
 1560000    291.94039   -24416.924            0    -22489.39    -97.60793    34272.129 
 1570000    294.94195   -24491.616            0   -22544.264   -158.72756    33863.198 
 1580000    301.52091   -24500.804            0   -22510.014   -252.18691    33509.272 
 1590000    303.00353   -24428.748            0   -22428.169    973.44178    33735.955 
 1600000    296.92223   -24523.888            0   -22563.461    557.63346    33412.469 
 1610000    293.88184   -24452.993            0    -22512.64   -703.70801    34049.625 
 1620000    296.88958   -24579.045            0   -22618.833   -737.76885    34003.248 
 1630000    300.60107   -24596.242            0   -22611.525   -39.910168    33318.605 
 1640000    302.60148   -24525.969            0   -22528.045    319.37509    33734.002 
 1650000    304.67059   -24573.345            0   -22561.759   -1082.6434    33632.702 
 1660000    291.36621   -24496.801            0   -22573.057    327.92569    33755.815 
 1670000    294.32541   -24471.066            0   -22527.784     797.2379    33992.359 
 1680000    297.08799   -24524.149            0   -22562.627   -330.74257    33798.412 
 1690000    291.87791    -24486.82            0   -22559.698   -171.66892    33798.251 
 1700000    299.85942   -24576.452            0   -22596.632    575.74833    34036.642 
 1710000    301.51703   -24550.205            0    -22559.44    172.97239    33941.852 
 1720000    287.14487   -24470.325            0   -22574.453   -688.01611    34148.222 
 1730000    297.01339   -24553.636            0   -22592.607   -516.86694    33606.564 
 1740000    293.61638   -24563.046            0   -22624.446    606.00247    33580.963 
 1750000    286.73106   -24499.031            0    -22605.89    340.73734    33855.559 
 1760000    292.92726   -24478.801            0    -22544.75    771.32992    33837.505 
 1770000    295.04412   -24482.924            0   -22534.897    693.93991    33654.358 
 1780000    293.67406    -24492.06            0   -22553.079    509.83984    33544.001 
 1790000    300.69417   -24465.693            0   -22480.362   -494.65705    33790.947 
 1800000    290.51255   -24532.063            0   -22613.956   -1186.2911    34308.681 
 1810000    287.13094    -24530.39            0    -22634.61    620.63511    33766.604 
 1820000    298.24367   -24462.147            0   -22492.995    37.917879    34034.619 
 1830000    293.76245   -24514.558            0   -22574.994    140.76766     33574.98 
 1840000    290.37331   -24505.912            0   -22588.724    -428.3276    33958.101 
 1850000    295.13728   -24486.387            0   -22537.745   -387.07118     34226.55 
 1860000    299.70022    -24508.97            0   -22530.201   -71.536551    33861.794 
 1870000    301.78827   -24476.755            0   -22484.199    790.97325    33173.762 
 1880000    304.07483   -24544.242            0   -22536.589     112.2833    34160.287 
 1890000    289.97657   -24573.682            0   -22659.114   -407.05165    34104.117 
 1900000    290.09101   -24555.913            0   -22640.589   -158.22635     34127.21 
 1910000    304.85312   -24525.379            0   -22512.588   -760.69263    34134.968 
 1920000    300.34123   -24553.874            0   -22570.873    145.04294    33308.606 
 1930000    297.49189   -24433.741            0   -22469.553   -385.64034    33922.039 
 1940000     295.9963   -24482.286            0   -22527.972    54.790366    33895.468 
 1950000    296.66385   -24456.899            0   -22498.177    -96.30093    33731.061 
 1960000    298.84132   -24465.655            0   -22492.557    -376.8442    33541.037 
 1970000    300.15768   -24544.771            0   -22562.981    7.6840062    34035.945 
 1980000    294.17849   -24486.538            0   -22544.227    155.86937      33533.3 
 1990000     290.0539   -24426.294            0   -22511.215   -306.75103    33721.222 
 2000000     300.4893   -24410.063            0   -22426.084   -302.09663    33807.979 
 2010000    301.26451   -24523.218            0    -22534.12    158.25101    33361.387 
 2020000    298.66048    -24481.37            0   -22509.466    451.79273    33797.261 
 2030000    299.50864   -24526.539            0   -22549.035   -365.73105    33914.127 
 2040000     297.9207    -24480.41            0    -22513.39    715.26496    33635.241 
 2050000    293.44313   -24537.534            0   -22600.078   -281.44628    33873.519 
 2060000    304.22707    -24552.42            0   -22543.762     541.7745    33561.448 
 2070000    306.51443   -24512.836            0   -22489.077   -363.64734    33768.282 
 2080000    301.55692   -24483.139            0   -22492.111   -12.275308    33845.746 
 2090000    295.52042   -24562.314            0   -22611.143   -154.66027    33638.489 
 2100000    291.41156   -24535.116            0   -22611.073    636.56243    33582.093 
 2110000    304.05629   -24520.874            0   -22513.344    317.12845    33425.206 
 2120000    302.53402   -24456.762            0   -22459.283   -224.32638    33869.327 
 2130000     294.8691   -24483.679            0   -22536.808    -509.2896     34094.89 
 2140000    296.45118   -24465.391            0   -22508.074   -179.90239    34000.298 
 2150000    294.07955   -24462.359            0     -22520.7   -12.911349    34180.939 
 2160000    295.39316   -24528.133            0   -22577.801    206.25864    33536.056 
 2170000    306.37803   -24489.042            0   -22466.183    623.32951    33823.905 
 2180000    292.33213   -24548.299            0   -22618.178    236.00132    33461.471 
 2190000    291.64854   -24527.045            0   -22601.437    381.56177    34075.989 
 2200000    307.52676    -24541.39            0   -22510.946    1263.8232    33795.235 
 2210000    300.54781   -24486.339            0   -22501.974    110.13149    33662.077 
 2220000    299.02903   -24535.031            0   -22560.694    212.68506    33994.131 
 2230000    301.77599   -24482.751            0   -22490.277   -772.69963    33689.869 
 2240000    298.49122   -24442.988            0   -22472.202    609.21073    33444.523 
 2250000    300.07634   -24527.243            0   -22545.991    276.72623    33576.166 
 2260000    301.04118   -24451.306            0   -22463.683    12.904896    34139.313 
 2270000    298.42402   -24505.975            0   -22535.632    192.05324    33608.765 
 2280000    302.15275   -24510.045            0   -22515.083     513.2655    33693.212 
 2290000    302.50698   -24448.889            0   -22451.588   -502.36219     33949.36 
 2300000    293.68874   -24454.408            0    -22515.33   -850.12456    33949.817 
 2310000    297.09867   -24421.761            0   -22460.169    604.72012    34047.858 
 2320000    299.48497    -24529.33            0   -22551.982   -84.909181    33704.803 
 2330000    300.83716   -24476.316            0   -22490.041   -397.91762    34228.097 
 2340000    297.11337   -24545.834            0   -22584.144   -110.35621    33829.877 
 2350000    299.66466   -24599.073            0   -22620.539   -253.22481    33530.221 
 2360000    300.46282   -24574.179            0   -22590.375   -44.091977    33925.462 
 2370000      294.824   -24567.301            0   -22620.727     825.5053    34216.019 
 2380000    294.76016   -24536.226            0   -22590.074   -684.97877    33537.397 
 2390000    304.05511   -24471.295            0   -22463.773    17.215742      33688.1 
 2400000    302.70057   -24492.097            0   -22493.518   -618.16427    33854.461 
 2410000    306.97387   -24530.881            0   -22504.087    39.120849    33815.482 
 2420000    293.51245    -24524.67            0   -22586.755   -159.62183      33970.1 
 2430000    295.03616   -24522.208            0   -22574.233   -565.14644    34018.684 
 2440000    297.21805   -24563.786            0   -22601.405   -381.38727    33858.386 
 2450000    290.93784   -24486.756            0    -22565.84  -0.86688076    34019.289 
 2460000    312.45822    -24524.75            0   -22461.746    134.71775    33524.786 
 2470000     299.2255   -24507.903            0   -22532.268   -339.18864    33971.685 
 2480000    294.88781   -24449.863            0   -22502.868   -347.64009    34155.447 
 2490000    302.95517   -24442.176            0   -22441.916    -109.4001    34281.981 
 2500000    295.05179   -24572.353            0   -22624.275   -1018.1566    33849.099 
 2510000    301.77052   -24585.704            0   -22593.266    999.38366    33630.703 
 2520000    303.00093   -24545.957            0   -22545.395    -115.1496    34002.324 
 2530000    304.33765   -24518.095            0   -22508.708    -855.1842    33874.384 
 2540000    293.85107   -24460.699            0   -22520.549    476.76334    33767.133 
 2550000    300.33251    -24495.54            0   -22512.596    203.68253    33785.459 
 2560000    289.34815   -24511.153            0   -22600.733    754.37826    33816.569 
 2570000    298.76265     -24397.4            0   -22424.821   -170.17596    33772.881 
 2580000    296.41493   -24521.366            0   -22564.288   -193.16124    33505.353 
 2590000    301.74918   -24471.245            0   -22478.948   -629.12908    33682.743 
 2600000    292.95887   -24419.902            0   -22485.643   -684.90883    33840.631 
 2610000     299.4762    -24548.76            0    -22571.47   -529.84261     34018.44 
 2620000    301.98122    -24523.12            0   -22529.291   -480.89023    33670.395 
 2630000    300.30656   -24413.842            0    -22431.07   -389.94117    33793.788 
 2640000    295.28863   -24415.935            0   -22466.294   -228.20587    33998.668 
 2650000    304.03413   -24415.463            0    -22408.08   -539.82565    34172.567 
 2660000    300.87954   -24538.209            0   -22551.654   -387.97889    34136.475 
 2670000    299.32748   -24447.819            0   -22471.511    19.304306    33705.175 
 2680000     309.7393   -24532.161            0   -22487.109   -766.35647    33967.438 
 2690000    298.18997   -24528.757            0   -22559.959    400.24433    33601.726 
 2700000    296.68716   -24433.726            0    -22474.85    491.29821    33810.911 
 2710000    298.96745   -24539.561            0    -22565.63    43.696812    33838.744 
 2720000    293.41689    -24434.55            0   -22497.267    408.72751    33723.745 
 2730000    300.04077   -24517.998            0   -22536.981   -121.54449    34000.782 
 2740000    294.17362   -24533.145            0   -22590.866   -240.86964    34109.557 
 2750000    286.35296   -24556.765            0   -22666.121    23.237245    34041.056 
 2760000    296.55294   -24523.254            0   -22565.265   -158.18647    33676.722 
 2770000    305.11536   -24549.805            0   -22535.283     328.2963    33964.384 
 2780000    290.63524    -24595.92            0   -22677.003    -211.0926    33453.823 
 2790000    297.54056   -24472.061            0   -22507.551    323.33046    33698.901 
 2800000     307.3051   -24575.098            0   -22546.118    1247.0054    33630.137 
 2810000    297.14664   -24475.531            0   -22513.622    503.70071    33753.153 
 2820000    298.96138   -24573.488            0   -22599.597    404.28633    33507.691 
 2830000    293.68955   -24508.006            0   -22568.922    -974.7421    33794.676 
 2840000     289.6911   -24515.976            0   -22603.292     94.82362    34300.752 
 2850000    294.91106   -24478.556            0   -22531.408   -66.412643    33664.579 
 2860000    300.48855   -24529.396            0   -22545.422    750.76614     33915.88 
 2870000    295.24983   -24534.611            0   -22585.225    -357.1766    33942.466 
 2880000    295.88827   -24605.604            0   -22652.003    562.36144    33406.833 
 2890000    291.32694   -24487.991            0   -22564.507    1170.5055    33381.575 
 2900000    299.36486   -24562.212            0   -22585.657   -53.894768    33698.916 
 2910000    306.45294   -24443.987            0   -22420.633   -430.43442     33883.64 
 2920000     298.8028   -24473.471            0   -22500.627   -746.65535    33979.562 
 2930000    302.22824   -24430.994            0   -22435.533    195.65849    33835.402 
 2940000    301.46661   -24387.929            0   -22397.497   -40.453777    34313.086 
 2950000    297.39851   -24483.099            0   -22519.528    3.4503191    33934.969 
 2960000    296.52224   -24511.462            0   -22553.676    -39.11762    33941.843 
 2970000    296.16173   -24529.651            0   -22574.245    682.21904    33672.633 
 2980000    282.09239   -24506.865            0   -22644.352   -645.25758    33913.282 
 2990000    293.69556   -24446.888            0   -22507.765    301.40971    34279.789 
 3000000    298.57195   -24448.054            0   -22476.735   -382.80484    34167.625 
 3010000     298.4585    -24437.95            0   -22467.379    263.05014    33886.702 
 3020000    290.96497   -24500.123            0   -22579.029   -661.91102    34031.088 
 3030000    291.13546   -24466.942            0   -22544.721      657.138    33585.065 
 3040000    290.66588   -24516.691            0   -22597.572   -359.56813     33710.28 
 3050000    295.29389   -24459.276            0     -22509.6   -1083.8994    34352.972 
 3060000     298.3811   -24471.935            0   -22501.875   -352.45664    33903.717 
 3070000    301.01887   -24495.417            0   -22507.942    265.86169    33938.177 
 3080000    302.15702   -24453.879            0   -22458.889   -326.16402    34223.958 
 3090000    299.99832   -24425.038            0   -22444.301   -7.3472534    34147.185 
 3100000    302.51495   -24509.984            0   -22512.631    677.86292    33951.092 
 3110000    297.10614   -24452.641            0   -22490.999    34.730618    34022.907 
 3120000    296.37658   -24451.302            0   -22494.478   -829.42268    34330.592 
 3130000    299.60765   -24524.042            0   -22545.885    1268.6829    33473.172 
 3140000    298.98912   -24605.776            0   -22631.702    610.32154    33534.848 
 3150000     307.5396   -24485.587            0   -22455.058    341.82859    33478.856 
 3160000    301.70834   -24459.979            0   -22467.952    308.98292    33728.263 
 3170000    283.95124   -24523.749            0   -22648.962   -110.88154    33830.506 
 3180000       294.48   -24601.307            0   -22657.005   -131.32854    33867.339 
 3190000    292.89056   -24439.745            0   -22505.937   -812.28458    34190.481 
 3200000    302.83781   -24571.961            0   -22572.476   -480.03898     33935.61 
 3210000    304.34317   -24465.561            0   -22456.137   -132.01274    34116.397 
 3220000    295.13296   -24519.896            0   -22571.282    176.90905    33471.228 
 3230000    301.69294   -24434.579            0   -22442.653    316.39873      33713.1 
 3240000      295.226   -24509.923            0   -22560.695   -297.80121    33841.558 
 3250000    287.90911   -24470.442            0   -22569.524    41.625348    34076.456 
 3260000    301.72233    -24568.11            0    -22575.99    669.20085    33804.207 
 3270000    296.44142   -24577.593            0    -22620.34    532.15697    33539.441 
 3280000    303.87336   -24481.374            0   -22475.051    223.13437    34058.173 
 3290000    304.21639   -24592.815            0   -22584.228   -614.64418    34002.137 
 3300000    292.47003   -24508.441            0    -22577.41   -83.266483    33582.626 
 3310000    301.77214   -24558.532            0   -22566.083    487.10678    33788.336 
 3320000    302.32237   -24486.908            0   -22490.826   -668.07179    34263.927 
 3330000    294.93724    -24568.69            0   -22621.369    622.28999    33480.821 
 3340000    290.61489   -24512.752            0   -22593.969   -688.27249    33898.495 
 3350000     293.4611   -24571.535            0    -22633.96    -118.5511    33446.515 
 3360000      303.284    -24503.43            0       -22501   -574.96155    33651.682 
 3370000    289.52783   -24541.572            0   -22629.966    204.61415    33890.751 
 3380000    295.46997   -24539.625            0   -22588.786   -233.60631     33757.62 
 3390000    313.12394    -24485.63            0   -22418.231    505.28512    33729.258 
 3400000    300.47074    -24478.07            0   -22494.214   -891.39667    34160.022 
 3410000    299.75994   -24528.573            0   -22549.409   -671.90905    33945.054 
 3420000    290.70097   -24521.784            0   -22602.432    3.5809022    33548.629 
 3430000    301.94055   -24481.143            0   -22487.582    654.69567      33385.1 
 3440000    297.09855   -24554.701            0    -22593.11    484.72008    33348.806 
 3450000    292.95695   -24507.684            0   -22573.437   -19.442909    33878.719 
 3460000    303.95199   -24466.195            0   -22459.354   -70.553427     33680.05 
 3470000    308.19035   -24475.913            0   -22441.087   -379.91619    34021.415 
 3480000    301.79937   -24527.887            0   -22535.259    88.286376     34061.59 
 3490000     295.0608   -24410.987            0    -22462.85    719.71441    33800.583 
 3500000    290.00104   -24536.812            0   -22622.082   -551.01113    33742.181 
 3510000    303.34191   -24491.986            0   -22489.172   -552.72924    34174.328 
 3520000    297.78147   -24520.778            0   -22554.677    1.7033643    33969.899 
 3530000    306.59019   -24474.176            0   -22449.916   -662.52322    34083.379 
 3540000     303.3456   -24551.782            0   -22548.945   -299.59096    33917.824 
 3550000    296.85045    -24337.86            0   -22377.906   -149.60241    33757.924 
 3560000    289.62215   -24421.652            0   -22509.424   -301.62473    34165.302 
 3570000    296.62059   -24501.289            0   -22542.853   -353.84929    33780.207 
 3580000    301.88782     -24474.7            0   -22481.487    298.74825    33653.274 
 3590000    305.04659   -24432.072            0   -22418.004   -34.099056     33764.09 
 3600000    296.54123   -24450.159            0   -22492.248    -804.8229    34049.032 
 3610000    303.02713   -24399.118            0   -22398.383   -587.22086     33723.11 
 3620000    300.91354   -24481.795            0   -22495.015    406.31721    33435.761 
 3630000     302.1955    -24333.71            0   -22338.466    944.92103    33933.521 
 3640000    307.79031   -24605.273            0   -22573.089    573.97334    33587.877 
 3650000    288.12719   -24506.376            0   -22604.018    235.58466    33781.106 
 3660000    301.51239   -24431.503            0   -22440.769    814.00031    33734.016 
 3670000    292.28575   -24500.681            0   -22570.866    867.36393    33542.323 
 3680000    298.44408   -24466.742            0   -22496.266    454.37698    33678.433 
 3690000    306.12622   -24525.627            0    -22504.43   -273.22702    33592.287 
 3700000    301.27876   -24517.651            0    -22528.46    855.50421      33791.4 
 3710000    301.85324   -24509.084            0     -22516.1   -399.69712    34405.976 
 3720000    309.32809   -24497.658            0   -22455.321    497.79368    33957.302 
 3730000    304.01297   -24517.859            0   -22510.615    1421.4276    33411.011 
 3740000    299.00753   -24585.654            0   -22611.459   -197.25364    33807.827 
 3750000    301.41801   -24498.142            0   -22508.031   -543.95497    33834.509 
 3760000    303.61331    -24574.88            0   -22570.275   -681.04089     33792.14 
 3770000    306.12455   -24492.215            0   -22471.029   -508.64197    34338.941 
 3780000    292.91411    -24446.04            0   -22512.077   -337.41053    34028.878 
 3790000    302.24554    -24553.67            0   -22558.096    469.93142    33489.979 
 3800000    300.06013   -24407.972            0   -22426.826    330.72166    33492.801 
 3810000    296.60562   -24528.695            0   -22570.358     384.4354    33578.326 
 3820000    302.68149   -24506.195            0   -22507.742    677.99913    33519.085 
 3830000    303.50188   -24542.735            0   -22538.866    386.01841    33528.866 
 3840000    306.24689   -24495.013            0    -22473.02   -64.652543    33755.441 
 3850000    305.03346    -24524.27            0   -22510.289    793.89547    33461.105 
 3860000    295.95447   -24526.847            0   -22572.809    69.367324    33505.671 
 3870000    298.30245   -24480.176            0   -22510.636   -18.563682    33930.737 
 3880000    301.25874   -24493.012            0   -22503.953   -833.82189    34283.643 
 3890000    300.05976   -24524.785            0   -22543.642   -659.16453    34222.503 
 3900000    298.35079    -24439.16            0     -22469.3   -805.25895    33946.851 
 3910000     296.8922   -24482.167            0   -22521.938   -430.23093    33770.535 
 3920000    299.76824   -24524.064            0   -22544.846    862.20709    33724.178 
 3930000     296.5696   -24447.039            0    -22488.94   -742.84035    34180.017 
 3940000    295.50547   -24455.447            0   -22504.374    77.466949    33540.213 
 3950000    295.10959   -24539.496            0   -22591.036   -505.70738    33774.969 
 3960000    300.13742   -24565.057            0   -22583.401     65.97361    33895.714 
 3970000    301.66626   -24483.534            0   -22491.784    269.34188    33570.286 
 3980000    287.69571   -24453.509            0       -22554   -1115.4285    34163.772 
 3990000    297.59434   -24468.511            0   -22503.646    590.39472    33637.616 
 4000000     305.0265   -24446.867            0   -22432.931    271.90581    33704.939 
 4010000    303.67535   -24490.567            0   -22485.552   -562.70216    34037.518 
 4020000    299.16194   -24524.578            0   -22549.363   -599.05119    33849.716 
 4030000    302.06052   -24566.271            0   -22571.919    228.19367     33662.87 
 4040000    300.29864   -24591.828            0   -22609.108    298.00516    33478.007 
 4050000    300.14195   -24445.618            0   -22463.933    583.87482    33828.621 
 4060000    290.18047   -24487.505            0    -22571.59    475.28251    33870.958 
 4070000    295.32101   -24549.312            0   -22599.457    117.14125    33676.934 
 4080000    298.83084   -24470.656            0   -22497.627   -186.04174    33464.221 
 4090000    304.18747    -24415.62            0   -22407.224   -595.47599     33901.02 
 4100000    290.83785   -24447.188            0   -22526.933   -551.32935    34102.855 
 4110000    303.29384   -24564.385            0   -22561.889    57.972233    33991.389 
 4120000     300.9248   -24559.277            0   -22572.423    -9.712624     33821.41 
 4130000    296.91369   -24415.783            0   -22455.412   -338.31395    33899.726 
 4140000    287.16744   -24420.319            0   -22524.298   -517.95901    33737.486 
 4150000    297.88774   -24471.611            0   -22504.809   -376.38287    34442.975 
 4160000    300.58786   -24552.873            0   -22568.244    962.87541    33491.317 
 4170000    293.77301   -24617.908            0   -22678.274    942.61613    33389.947 
 4180000    304.38923   -24443.571            0   -22433.843    256.58805    34345.817 
 4190000    296.56321   -24550.821            0   -22592.764     473.7185    33784.709 
 4200000    290.65384   -24535.106            0   -22616.066    175.33965    33457.416 
 4210000    294.67802   -24458.401            0   -22512.791    418.69566    33913.352 
 4220000     293.2711   -24486.615            0   -22550.294    -192.5398    33980.509 
 4230000    298.88309   -24304.801            0   -22331.427   -1070.5898    34055.346 
 4240000    295.04396   -24420.141            0   -22472.115   -151.74164     34201.01 
 4250000     295.4724   -24512.264            0   -22561.409    182.13547    33607.593 
 4260000    295.18545   -24478.648            0   -22529.687   -954.84102    33881.649 
 4270000     293.7299   -24459.447            0   -22520.097    478.90464    33843.906 
 4280000    291.51422   -24587.925            0   -22663.204   -795.26899    34184.851 
 4290000    291.69059   -24548.418            0   -22622.532    145.33326    33451.278 
 4300000    294.72942   -24468.014            0   -22522.065   -231.96244    34162.648 
 4310000    301.92359   -24509.748            0     -22516.3    721.09423    34059.294 
 4320000    304.83194   -24414.474            0   -22401.822    113.88715    33905.499 
 4330000    300.86393   -24417.943            0   -22431.491    181.05477    34300.435 
 4340000    294.11202   -24577.204            0   -22635.331    -55.56359    33772.355 
 4350000     300.6271   -24448.159            0   -22463.271    98.561221    33924.761 
 4360000    292.02144   -24414.474            0   -22486.404   -569.31208    33887.492 
 4370000    296.90591   -24572.435            0   -22612.116   -130.81167    34197.468 
 4380000    293.91844   -24536.811            0   -22596.216    -407.8132    33704.822 
 4390000    301.31519   -24559.167            0   -22569.735   -610.07682    34144.762 
 4400000    292.10948   -24573.249            0   -22644.598   -815.15497    34006.563 
 4410000    297.02556   -24442.791            0   -22481.681    205.83332    33755.791 
 4420000    300.86167   -24375.349            0   -22388.911   -808.74648    34209.424 
 4430000    300.99793   -24570.031            0   -22582.694   -486.36041    33826.119 
 4440000    302.39374   -24639.786            0   -22643.233    460.79625    33531.645 
 4450000    296.78411   -24495.507            0   -22535.992    226.78955    33708.753 
 4460000    294.91988   -24522.347            0    -22575.14     208.8949    33694.847 
 4470000    298.05719   -24492.435            0   -22524.514    201.38217    33702.332 
 4480000    303.91043    -24586.26            0   -22579.693   -332.99599    33621.512 
 4490000     294.6284   -24498.252            0   -22552.969    257.23594    33628.251 
 4500000    295.21968   -24474.276            0   -22525.089   0.94459172    33742.652 
 4510000    301.27349   -24418.614            0   -22429.458     -135.125    33682.349 
 4520000    295.91131   -24493.349            0   -22539.597   -199.42325    33856.051 
 4530000    293.90075   -24536.954            0   -22596.476    930.47932    33443.683 
 4540000    300.50528   -24460.946            0   -22476.861   -290.74694    33736.407 
 4550000    294.05986   -24504.799            0   -22563.271    425.80275    33631.521 
 4560000    296.49266   -24560.441            0    -22602.85    824.74471    33810.924 
 4570000    297.36812   -24487.817            0   -22524.446   -346.84917    33592.112 
 4580000    301.05016   -24498.027            0   -22510.345    -272.9506    34302.899 
 4590000    301.51172   -24469.844            0   -22479.115   -321.80566    33776.392 
 4600000    301.99079   -24507.682            0   -22513.789   -179.81993    33717.759 
 4610000    302.48635   -24533.228            0   -22536.064    194.07128    33858.027 
 4620000    297.28947   -24370.567            0   -22407.715    792.45234    33596.971 
 4630000    290.30816   -24456.277            0   -22539.519   -504.93039     33864.22 
 4640000    299.25153   -24499.903            0   -22524.097   -154.95283    33744.077 
 4650000    289.07308   -24525.457            0   -22616.854   -524.16617    33653.651 
 4660000    306.02106   -24535.766            0   -22515.264    180.87138     33813.84 
 4670000    295.43272   -24534.994            0   -22584.401    945.64087    33281.335 
 4680000    300.17234   -24526.657            0   -22544.771    86.007539    33633.722 
 4690000    291.86242   -24531.992            0   -22604.972    106.47383     34218.64 
 4700000    302.89737   -24488.273            0   -22488.395   -470.83469    33744.144 
 4710000    297.00409    -24509.89            0   -22548.923   -436.60774    34215.024 
 4720000    299.07151   -24453.772            0   -22479.154    124.81942     33899.46 
 4730000    302.24171   -24533.658            0   -22538.109    832.50687    33842.169 
 4740000    305.11942   -24539.818            0   -22525.269    305.79324    33678.555 
 4750000    300.29113   -24424.619            0   -22441.949    417.96637    34003.489 
 4760000    301.00829   -24466.927            0   -22479.521   -397.67091    34083.432 
 4770000    301.15143   -24461.837            0   -22473.487    82.874466    33713.939 
 4780000    296.23464   -24566.573            0   -22610.685     802.4976    33732.426 
 4790000    298.91388   -24527.241            0   -22553.664   -763.80797    33882.161 
 4800000    300.56227   -24516.352            0   -22531.891   -715.19411    33989.332 
 4810000     299.3184   -24601.828            0    -22625.58   -418.80247    33562.903 
 4820000    299.81974   -24471.339            0    -22491.78   -764.32416     34004.08 
 4830000    308.88554    -24439.41            0   -22399.995   -181.30464    33974.141 
 4840000    297.72866   -24542.768            0   -22577.016    28.240456    33668.154 
 4850000     298.3151   -24436.759            0   -22467.136    563.69196    33406.023 
 4860000    292.63274   -24520.554            0   -22588.448   -70.600311    33646.282 
 4870000    307.07843   -24411.098            0   -22383.615   -1086.3917    33907.867 
 4880000    300.52054   -24499.421            0   -22515.236   -155.60251    33869.077 
 4890000    300.79632   -24557.218            0   -22571.212    176.28492    33521.358 
 4900000    289.97905    -24600.94            0   -22686.355   -259.95367    33970.325 
 4910000    294.57814   -24530.697            0   -22585.746      -12.773    33531.713 
 4920000    300.31773   -24373.427            0   -22390.581   -374.58579    34126.376 
 4930000    309.08535   -24544.915            0   -22504.181   -174.34657    33958.231 
 4940000    298.01701   -24549.196            0    -22581.54   -957.97804    33961.142 
 4950000    300.98142   -24545.909            0   -22558.681    199.53986    33507.698 
 4960000    302.15157   -24435.416            0   -22440.462   -663.25145    33954.819 
 4970000    300.83894   -24488.971            0   -22502.684   -965.36231    34440.466 
 4980000    295.84533   -24462.888            0   -22509.571   -726.87355    33809.746 
 4990000     296.7396   -24543.933            0   -22584.712    775.91397    33405.877 
 5000000    285.99673   -24589.411            0   -22701.119   -287.22377    33961.916 
Loop time of 5306.14 on 128 procs for 5000000 steps with 3216 atoms

Performance: 162.830 ns/day, 0.147 hours/ns, 942.304 timesteps/s
99.4% CPU use with 128 MPI tasks x no OpenMP threads

MPI task timing breakdown:
Section |  min time  |  avg time  |  max time  |%varavg| %total
---------------------------------------------------------------
Pair    | 1202.9     | 1449       | 1659.4     | 301.9 | 27.31
Bond    | 0.48114    | 0.55149    | 0.93067    |   9.7 |  0.01
Kspace  | 2160       | 2363.4     | 2584.6     | 231.2 | 44.54
Neigh   | 148.04     | 152.02     | 155.89     |  26.7 |  2.86
Comm    | 549.01     | 615.85     | 692.85     | 134.4 | 11.61
Output  | 0.047191   | 0.047952   | 0.049011   |   0.2 |  0.00
Modify  | 536.6      | 641.53     | 690.66     | 140.6 | 12.09
Other   |            | 83.75      |            |       |  1.58

Nlocal:    25.125 ave 33 max 18 min
Histogram: 6 5 17 8 31 12 29 12 7 1
Nghost:    2887.31 ave 2913 max 2858 min
Histogram: 3 4 9 17 21 23 20 17 9 5
Neighs:    9291.38 ave 12808 max 6122 min
Histogram: 7 7 12 21 25 20 15 12 7 2

Total # of neighbors = 1189296
Ave neighs/atom = 369.806
Ave special neighs/atom = 1.86567
Neighbor list builds = 435266
Dangerous builds = 0
reset_timestep 0

#################### 2) Obtaining average volume in NPT ######################
# Getting the average volume of the system
variable Volume equal vol
fix VoluAve all ave/time 1 ${Npnpt} ${Npnpt} v_Volume file volume.dat
fix VoluAve all ave/time 1 5000000 ${Npnpt} v_Volume file volume.dat
fix VoluAve all ave/time 1 5000000 5000000 v_Volume file volume.dat


# Thermo style for outputing system properties to the log file
thermo_style custom density
thermo_modify flush yes

variable Dens equal density
fix DensAve all ave/time 1 ${NBR} ${NBR} v_Dens file density.dat
fix DensAve all ave/time 1 100000 ${NBR} v_Dens file density.dat
fix DensAve all ave/time 1 100000 100000 v_Dens file density.dat

run ${Npnpt}
run 5000000
PPPM initialization ...
  extracting TIP4P info from pair style
  using 12-bit tables for long-range coulomb (../kspace.cpp:321)
  G vector (1/distance) = 0.309633
  grid = 30 30 30
  stencil order = 5
  estimated absolute RMS force accuracy = 0.00385808
  estimated relative force accuracy = 1.16185e-05
  using double precision FFTs
  3d grid and FFT values/proc = 2475 256
Per MPI rank memory allocation (min/avg/max) = 8.198 | 8.211 | 8.218 Mbytes
Density 
   1.1894508 
   1.2007919 
   1.2082707 
   1.2006937 
   1.1952766 
   1.1993706 
   1.2079933 
   1.2050873 
   1.1850092 
   1.1862093 
   1.1719203 
   1.1917402 
   1.1864351 
   1.1863196 
     1.19467 
   1.1921357 
   1.1873676 
   1.1922013 
   1.2020846 
   1.1911396 
   1.1791597 
   1.1923112 
   1.2173185 
   1.1918937 
    1.187141 
   1.1939632 
   1.2004306 
   1.2025703 
    1.201434 
    1.192388 
   1.1953752 
   1.2002355 
   1.1942828 
   1.1948813 
    1.194559 
   1.2021471 
   1.1830713 
   1.1916125 
   1.1914684 
   1.2010032 
   1.2103534 
   1.1792924 
   1.1931867 
   1.1887226 
    1.200747 
   1.1833435 
   1.1916743 
   1.1963962 
   1.1851772 
   1.1853974 
   1.1944564 
    1.194292 
   1.1982831 
   1.2024308 
   1.1945446 
   1.1840407 
   1.1754565 
   1.1772784 
   1.2006083 
   1.2000366 
   1.1926681 
    1.187754 
   1.1987757 
   1.1973291 
   1.2062698 
   1.1836934 
   1.1878248 
   1.2054747 
   1.1899859 
   1.1922013 
   1.2067024 
   1.2085783 
   1.1785283 
   1.2019016 
   1.2043591 
   1.1975411 
    1.202408 
   1.2007595 
   1.1840355 
   1.1802919 
   1.2093486 
   1.2251457 
    1.202792 
   1.1969959 
   1.1982007 
   1.1999816 
   1.1984707 
   1.1964999 
   1.1915714 
   1.1852339 
   1.2039631 
    1.209446 
   1.1895497 
   1.1803458 
   1.2031894 
   1.1995144 
   1.1905864 
   1.1998659 
   1.1815295 
   1.1773109 
   1.2037059 
   1.1942808 
   1.1943957 
   1.1940805 
   1.1886752 
   1.2031107 
   1.1956005 
   1.1831079 
    1.204783 
   1.2012552 
    1.198478 
   1.2026698 
   1.1879375 
   1.1848316 
   1.1859709 
   1.1926952 
   1.2166339 
   1.1856794 
   1.1758024 
   1.1915959 
   1.1972288 
   1.1940807 
   1.2002773 
   1.1853091 
   1.2072263 
   1.2025399 
   1.1974241 
   1.1860559 
   1.1914176 
   1.1949643 
   1.1948089 
   1.1998923 
   1.1796083 
   1.2095968 
   1.1899631 
   1.1877937 
   1.1928187 
   1.1952882 
   1.1903209 
   1.1861435 
   1.1880924 
   1.1868317 
   1.1983918 
   1.1887048 
   1.2003654 
   1.1820876 
   1.2055134 
   1.1954995 
   1.2173255 
   1.2057247 
   1.1964282 
   1.1933802 
   1.1789279 
   1.1816379 
   1.1753179 
   1.2047128 
   1.2049107 
   1.2062624 
   1.1838463 
   1.1918469 
   1.1990746 
   1.1846953 
   1.1996931 
   1.1898519 
   1.2174589 
   1.1971556 
   1.1805815 
   1.1999884 
    1.190985 
   1.1918171 
    1.207159 
   1.1978562 
   1.1857934 
   1.1983663 
   1.1914603 
   1.2151914 
   1.1862661 
   1.2087007 
   1.1868395 
   1.1964196 
   1.1879744 
   1.1918012 
   1.1859724 
   1.1847754 
   1.1986985 
   1.1905518 
   1.1929003 
   1.1855907 
   1.2026993 
   1.1988366 
   1.1903332 
   1.1963014 
   1.1829894 
     1.18724 
   1.1982088 
   1.1844524 
   1.1905816 
   1.1993743 
   1.2033449 
   1.1975721 
   1.1954215 
   1.1763259 
   1.1899478 
   1.1871762 
   1.1969189 
   1.1796423 
   1.1887423 
   1.2074943 
   1.1861667 
   1.1809451 
   1.1964723 
   1.1946863 
   1.1877451 
   1.1956768 
    1.199942 
   1.1925619 
   1.1962086 
   1.2119438 
   1.2026635 
   1.2018811 
   1.1993414 
    1.199402 
    1.178782 
   1.1934208 
   1.2057027 
   1.1957862 
   1.1897906 
   1.1898445 
   1.1819001 
   1.1825999 
   1.1983762 
     1.18362 
   1.1789769 
   1.2057945 
   1.1902052 
   1.1905685 
   1.1906493 
   1.1908828 
   1.1901636 
   1.2084675 
   1.2091362 
   1.1926678 
   1.2057878 
   1.2055174 
   1.1866434 
   1.1970864 
    1.197264 
    1.183051 
   1.1868196 
   1.1951984 
   1.1960912 
   1.1958966 
     1.18793 
    1.188906 
   1.1862486 
   1.1782918 
   1.1713021 
    1.189006 
   1.1978859 
   1.1996831 
   1.2142996 
   1.1961957 
   1.1910499 
   1.1951928 
   1.1871536 
   1.1947683 
   1.1973548 
   1.2021193 
   1.1907877 
   1.1864351 
   1.2071377 
   1.1929835 
   1.1850555 
   1.1920514 
   1.1904288 
   1.2068937 
   1.2007466 
   1.1976128 
   1.2035323 
    1.201481 
   1.1917661 
   1.1923803 
    1.186009 
   1.1934663 
   1.1931726 
   1.1961054 
    1.199262 
   1.2041016 
   1.1918437 
   1.1887073 
   1.1858196 
   1.1896126 
    1.201546 
   1.1859118 
   1.1842973 
    1.205164 
   1.1941427 
   1.2042184 
    1.192015 
   1.2040349 
   1.1802395 
   1.1717489 
   1.1919701 
   1.1928852 
   1.2002711 
   1.1959841 
   1.1871114 
   1.1940853 
   1.1816986 
   1.1996709 
   1.1915896 
   1.2165521 
   1.1971915 
   1.1955718 
   1.1834288 
   1.1828877 
    1.183885 
   1.1897722 
    1.183971 
   1.1950077 
   1.2129223 
    1.188763 
   1.1798369 
   1.1926544 
   1.1878288 
   1.1899323 
   1.1896762 
   1.1957495 
   1.2000606 
   1.1846807 
      1.1877 
   1.2112172 
    1.193074 
   1.2100125 
   1.2002939 
   1.1856923 
   1.2023962 
   1.1871462 
   1.1852771 
   1.2052655 
   1.1895927 
   1.2000769 
   1.1926666 
   1.2052469 
   1.1917626 
   1.2001663 
   1.1927574 
   1.1997358 
   1.1948285 
   1.1853121 
   1.1873517 
   1.1827463 
   1.1876477 
   1.1961805 
   1.1927748 
   1.1983405 
   1.1929899 
   1.1777908 
    1.204041 
   1.1850276 
   1.1949683 
   1.1925935 
   1.1923797 
   1.1739573 
   1.1944244 
   1.2052843 
   1.2106726 
   1.1912654 
   1.2005576 
   1.2015623 
   1.1922063 
   1.1879663 
   1.1845657 
   1.1910817 
   1.2001101 
   1.1928615 
   1.2074959 
   1.1971042 
   1.1820971 
   1.1873207 
   1.1986457 
   1.2135648 
   1.1914825 
   1.1884402 
   1.1960655 
   1.1969131 
   1.1949799 
    1.180035 
   1.1918591 
   1.1858471 
   1.1711056 
   1.1979861 
   1.2016154 
   1.1982849 
   1.1878712 
    1.195595 
    1.191393 
    1.188761 
    1.197453 
   1.1969942 
   1.2036168 
   1.2001962 
   1.1870196 
   1.1866331 
   1.1952942 
   1.1931594 
   1.1939153 
    1.195203 
   1.2138533 
   1.1848884 
   1.1934203 
   1.1794544 
   1.2067731 
    1.184226 
   1.1898461 
   1.1967747 
   1.1933609 
   1.2032109 
   1.1906377 
   1.1880833 
   1.1941157 
   1.1912817 
   1.1972833 
   1.1877713 
   1.2046654 
   1.1681431 
   1.1924514 
    1.207967 
   1.1849674 
   1.1833268 
   1.1962454 
   1.1995996 
   1.1920034 
   1.1973552 
   1.1985239 
   1.2008034 
   1.1969639 
   1.1961099 
   1.1892576 
   1.2039723 
   1.1875484 
   1.1906713 
   1.1843523 
   1.1823399 
    1.205495 
    1.187106 
     1.20089 
   1.1784939 
    1.192416 
   1.1915394 
   1.1914305 
   1.1926614 
   1.2034594 
   1.2075474 
   1.1855655 
   1.1953711 
   1.1916722 
   1.1974889 
   1.2008705 
   1.1928319 
   1.1916015 
   1.1967281 
   1.1922592 
   1.1864178 
   1.1941392 
   1.1924727 
   1.1986827 
   1.1904508 
   1.1847591 
   1.1965448 
    1.193146 
   1.1788607 
   1.1899557 
   1.2107589 
   1.1902641 
   1.2008703 
   1.1754203 
   1.2028137 
   1.1884877 
   1.1938189 
   1.1857293 
   1.1964993 
   1.1707962 
    1.187355 
   1.1810398 
   1.2029211 
   1.1974177 
   1.2063271 
    1.196064 
   1.1990641 
   1.2225166 
   1.1915091 
   1.1947447 
   1.1975798 
   1.1950679 
   1.1951519 
   1.2046498 
   1.2033179 
   1.2004597 
   1.1898654 
   1.1896943 
Loop time of 5349.38 on 128 procs for 5000000 steps with 3216 atoms

Performance: 161.514 ns/day, 0.149 hours/ns, 934.689 timesteps/s
99.4% CPU use with 128 MPI tasks x no OpenMP threads

MPI task timing breakdown:
Section |  min time  |  avg time  |  max time  |%varavg| %total
---------------------------------------------------------------
Pair    | 1200.6     | 1446.5     | 1657.9     | 301.6 | 27.04
Bond    | 0.47644    | 0.55524    | 0.93247    |  10.3 |  0.01
Kspace  | 2136       | 2355.8     | 2579       | 231.6 | 44.04
Neigh   | 147.2      | 151.89     | 155.88     |  27.9 |  2.84
Comm    | 547.65     | 615.35     | 692.49     | 138.3 | 11.50
Output  | 0.01756    | 0.022776   | 0.047649   |   2.5 |  0.00
Modify  | 590.22     | 695.45     | 745.58     | 135.3 | 13.00
Other   |            | 83.85      |            |       |  1.57

Nlocal:    25.125 ave 35 max 17 min
Histogram: 2 7 16 26 17 33 19 6 1 1
Nghost:    2876.85 ave 2911 max 2853 min
Histogram: 4 16 22 27 19 14 14 6 4 2
Neighs:    9291.69 ave 12800 max 5655 min
Histogram: 1 7 12 14 20 37 20 9 6 2

Total # of neighbors = 1189336
Ave neighs/atom = 369.818
Ave special neighs/atom = 1.86567
Neighbor list builds = 435443
Dangerous builds = 0
reset_timestep 0

#################### 3) Initializing the NVT ensemble ####################
# scaling the size of the system to the average volume
variable sidesize equal (f_VoluAve^(1.0/3.0))    # get the volume
variable xlow equal xlo
variable ylow equal ylo
variable zlow equal zlo
variable xhig equal (xlo+${sidesize})
variable xhig equal (xlo+32.3443305949542)
variable yhig equal (ylo+${sidesize})
variable yhig equal (ylo+32.3443305949542)
variable zhig equal (zlo+${sidesize})
variable zhig equal (zlo+32.3443305949542)
change_box all x final ${xlow} ${xhig} y final ${ylow} ${yhig} z final ${zlow} ${zhig}
change_box all x final 0.963577773369394 ${xhig} y final ${ylow} ${yhig} z final ${zlow} ${zhig}
change_box all x final 0.963577773369394 33.3079083683236 y final ${ylow} ${yhig} z final ${zlow} ${zhig}
change_box all x final 0.963577773369394 33.3079083683236 y final 0.963577773369394 ${yhig} z final ${zlow} ${zhig}
change_box all x final 0.963577773369394 33.3079083683236 y final 0.963577773369394 33.3079083683236 z final ${zlow} ${zhig}
change_box all x final 0.963577773369394 33.3079083683236 y final 0.963577773369394 33.3079083683236 z final 0.963577773369394 ${zhig}
change_box all x final 0.963577773369394 33.3079083683236 y final 0.963577773369394 33.3079083683236 z final 0.963577773369394 33.3079083683236
  orthogonal box = (0.963578 0.963578 0.963578) to (33.3079 33.3454 33.3454)
  orthogonal box = (0.963578 0.963578 0.963578) to (33.3079 33.3079 33.3454)
  orthogonal box = (0.963578 0.963578 0.963578) to (33.3079 33.3079 33.3079)
unfix DensAve
unfix VoluAve

# changing the ensemble to NVT
unfix integrate
fix integrate all nvt temp ${Temp} ${Temp} 100.0
fix integrate all nvt temp 298 ${Temp} 100.0
fix integrate all nvt temp 298 298 100.0


# Initializing the whole system with very small timesteps in the NVT ensemble
timestep 0.001
run ${Ninvtpre}
run 10000
PPPM initialization ...
  extracting TIP4P info from pair style
  using 12-bit tables for long-range coulomb (../kspace.cpp:321)
  G vector (1/distance) = 0.309721
  grid = 30 30 30
  stencil order = 5
  estimated absolute RMS force accuracy = 0.003844
  estimated relative force accuracy = 1.15761e-05
  using double precision FFTs
  3d grid and FFT values/proc = 2475 256
Per MPI rank memory allocation (min/avg/max) = 8.198 | 8.212 | 8.218 Mbytes
Density 
   1.1938346 
   1.1938346 
Loop time of 8.58236 on 128 procs for 10000 steps with 3216 atoms

Performance: 0.101 ns/day, 238.399 hours/ns, 1165.181 timesteps/s
99.4% CPU use with 128 MPI tasks x no OpenMP threads

MPI task timing breakdown:
Section |  min time  |  avg time  |  max time  |%varavg| %total
---------------------------------------------------------------
Pair    | 1.2239     | 2.148      | 2.9877     |  23.3 | 25.03
Bond    | 0.00071548 | 0.00083001 | 0.00129    |   0.0 |  0.01
Kspace  | 3.5746     | 4.4181     | 5.3229     |  16.1 | 51.48
Neigh   | 0          | 0          | 0          |   0.0 |  0.00
Comm    | 1.0068     | 1.1042     | 1.1856     |   3.6 | 12.87
Output  | 3.4093e-05 | 4.9421e-05 | 0.00012092 |   0.0 |  0.00
Modify  | 0.73811    | 0.80125    | 0.86202    |   3.6 |  9.34
Other   |            | 0.11       |            |       |  1.28

Nlocal:    25.125 ave 35 max 17 min
Histogram: 2 8 14 30 19 22 27 4 0 2
Nghost:    2884.52 ave 2907 max 2861 min
Histogram: 4 6 15 17 20 21 16 14 10 5
Neighs:    9320.14 ave 12751 max 5701 min
Histogram: 2 7 10 17 21 21 35 6 7 2

Total # of neighbors = 1192978
Ave neighs/atom = 370.951
Ave special neighs/atom = 1.86567
Neighbor list builds = 0
Dangerous builds = 0
timestep 0.01
run ${Ninvtpre}
run 10000
PPPM initialization ...
  extracting TIP4P info from pair style
  using 12-bit tables for long-range coulomb (../kspace.cpp:321)
  G vector (1/distance) = 0.309721
  grid = 30 30 30
  stencil order = 5
  estimated absolute RMS force accuracy = 0.003844
  estimated relative force accuracy = 1.15761e-05
  using double precision FFTs
  3d grid and FFT values/proc = 2475 256
Per MPI rank memory allocation (min/avg/max) = 8.198 | 8.212 | 8.218 Mbytes
Density 
   1.1938346 
   1.1938346 
Loop time of 7.68528 on 128 procs for 10000 steps with 3216 atoms

Performance: 1.124 ns/day, 21.348 hours/ns, 1301.190 timesteps/s
99.4% CPU use with 128 MPI tasks x no OpenMP threads

MPI task timing breakdown:
Section |  min time  |  avg time  |  max time  |%varavg| %total
---------------------------------------------------------------
Pair    | 1.3438     | 2.1478     | 2.8987     |  21.8 | 27.95
Bond    | 0.00071862 | 0.00082249 | 0.0012857  |   0.0 |  0.01
Kspace  | 2.9006     | 3.6359     | 4.4245     |  16.5 | 47.31
Neigh   | 0.0012276  | 0.0012543  | 0.0012879  |   0.0 |  0.02
Comm    | 1.0008     | 1.0806     | 1.1504     |   3.4 | 14.06
Output  | 2.4626e-05 | 3.4382e-05 | 7.7405e-05 |   0.0 |  0.00
Modify  | 0.62938    | 0.69802    | 0.75315    |   3.6 |  9.08
Other   |            | 0.1208     |            |       |  1.57

Nlocal:    25.125 ave 34 max 18 min
Histogram: 3 11 13 31 20 17 20 5 5 3
Nghost:    2886.77 ave 2910 max 2863 min
Histogram: 2 4 10 22 30 26 13 12 4 5
Neighs:    9319.78 ave 13803 max 5829 min
Histogram: 5 8 16 23 33 22 9 8 3 1

Total # of neighbors = 1192932
Ave neighs/atom = 370.937
Ave special neighs/atom = 1.86567
Neighbor list builds = 4
Dangerous builds = 0
timestep 0.1
run ${Ninvtpre}
run 10000
PPPM initialization ...
  extracting TIP4P info from pair style
  using 12-bit tables for long-range coulomb (../kspace.cpp:321)
  G vector (1/distance) = 0.309721
  grid = 30 30 30
  stencil order = 5
  estimated absolute RMS force accuracy = 0.003844
  estimated relative force accuracy = 1.15761e-05
  using double precision FFTs
  3d grid and FFT values/proc = 2475 256
Per MPI rank memory allocation (min/avg/max) = 8.198 | 8.212 | 8.218 Mbytes
Density 
   1.1938346 
   1.1938346 
Loop time of 7.83051 on 128 procs for 10000 steps with 3216 atoms

Performance: 11.034 ns/day, 2.175 hours/ns, 1277.056 timesteps/s
99.5% CPU use with 128 MPI tasks x no OpenMP threads

MPI task timing breakdown:
Section |  min time  |  avg time  |  max time  |%varavg| %total
---------------------------------------------------------------
Pair    | 1.3942     | 2.1551     | 2.8869     |  20.6 | 27.52
Bond    | 0.00071443 | 0.00082422 | 0.0011649  |   0.0 |  0.01
Kspace  | 3.0723     | 3.7926     | 4.5198     |  15.3 | 48.43
Neigh   | 0.013794   | 0.013972   | 0.014196   |   0.1 |  0.18
[...]
98160000    301.59703    297.50459   -209.65861   -2.6494533   -24552.581    1991.2926   -22561.288 
98170000    299.19869    297.83028    229.93108    76.320215    -24537.71    1975.4576   -22562.252 
98180000    308.19973    297.99787   -205.30202    42.861639    -24462.96    2034.8869   -22428.073 
98190000    300.82423    298.44441    299.69869    69.912849   -24494.256    1986.1903   -22508.066 
98200000    294.92745    298.09454    379.41635    4.5362636   -24535.227    1947.2568    -22587.97 
98210000    294.29748    297.93501    509.75123   -21.565822    -24406.23    1943.0974   -22463.132 
98220000     301.6505    297.68885    219.78944   -92.344622   -24455.637    1991.6457   -22463.991 
98230000    296.74151    298.43389    56.682061    9.6080992   -24556.991    1959.2341   -22597.756 
98240000    299.83719    298.01445    95.289217    86.739597   -24446.497    1979.6733   -22466.824 
98250000    300.27093    298.27004   -611.39426   -184.79496   -24599.639    1982.5371   -22617.102 
98260000    302.57034     297.7065    623.35402   -122.56169   -24546.292    1997.7189   -22548.573 
98270000    289.65218    298.00192    355.40067   -58.675536   -24528.509    1912.4269   -22616.083 
98280000    294.10676    297.84518    120.10573    37.083633   -24493.404    1941.8382   -22551.566 
98290000    294.11154    298.09631   -475.60498    94.343817   -24537.373    1941.8697   -22595.503 
98300000    302.23818    297.92872    149.24904    121.12835   -24570.786    1995.5258    -22575.26 
98310000    301.37701    297.90556    122.57206    24.814522    -24498.58      1989.84    -22508.74 
98320000    300.87686    298.33595    182.62439    25.462649   -24532.761    1986.5378   -22546.223 
98330000    304.87482     298.2146    467.09898   -85.690224   -24451.152    2012.9342   -22438.217 
98340000    304.10267    298.35882    209.00265   -47.366812   -24488.948    2007.8361   -22481.111 
98350000    300.22444    298.53052    313.19469   -20.633742   -24521.979    1982.2301   -22539.749 
98360000    296.18185    298.02731    131.44643    57.085782   -24583.204     1955.539   -22627.665 
98370000    306.90875    297.97457    652.11568    19.012311   -24538.613    2026.3633    -22512.25 
98380000    297.74911    298.50448    347.25794    19.818587   -24563.793    1965.8868   -22597.906 
98390000    298.73387     298.5824   -539.00181    -68.21564   -24530.053    1972.3886   -22557.664 
98400000    291.40031    298.10063    577.55312    1.5130607   -24420.759    1923.9689    -22496.79 
98410000    304.50688    298.05642   -561.60681    5.0883412   -24522.731    2010.5049   -22512.226 
98420000      292.171    298.16948    331.72975    241.04753    -24641.66    1929.0573   -22712.603 
98430000    302.10606    297.24826   -189.56068    54.939418   -24553.733    1994.6535   -22559.079 
98440000    297.99048    297.91082   -504.14965    42.241281   -24514.922    1967.4804   -22547.441 
98450000    289.41211    298.33506   -64.836416   -58.640301   -24517.191    1910.8418   -22606.349 
98460000    286.50767    297.74001    88.834048   -30.454166   -24419.889    1891.6653   -22528.224 
98470000    290.03236    297.69486   -692.28092    69.694008   -24562.439     1914.937   -22647.502 
98480000    294.09821     298.0876    818.92068   -31.216522   -24482.636    1941.7818   -22540.855 
98490000    298.55651    297.59606   -465.27331    27.689039   -24432.384    1971.2176   -22461.166 
98500000    296.93466    298.23603    715.96401    36.952579   -24457.879    1960.5094   -22497.369 
98510000    297.10377     298.1241    588.02712    122.14745   -24540.441     1961.626   -22578.815 
98520000    302.60256    297.63639   -124.89905    120.64672   -24559.849    1997.9316   -22561.917 
98530000    305.29596    297.77631   -235.66102   -42.279305   -24447.953    2015.7148   -22432.238 
98540000    300.48281    298.21002    353.01833    2.4188474   -24514.871     1983.936   -22530.934 
98550000    298.99376    298.15225   -205.26228    51.036784   -24501.582    1974.1046   -22527.478 
98560000        295.3    297.66046   -643.70528    13.201795   -24549.136    1949.7166   -22599.419 
98570000    295.99674    297.74795   -21.586741   -24.795658   -24498.314    1954.3168   -22543.998 
98580000    292.96436    298.32279    49.413721   -11.986645   -24408.316    1934.2955    -22474.02 
98590000    299.55989    297.90007   -362.32513    30.012476   -24678.762    1977.8425    -22700.92 
98600000    304.75712    297.69498   -287.11342   -33.460879   -24521.494    2012.1572   -22509.337 
98610000    296.08299    297.72462   -89.725152   -48.553125   -24481.861    1954.8862   -22526.975 
98620000    300.24205    298.15486      704.743    14.997268   -24496.375    1982.3464   -22514.029 
98630000    298.92134    297.47246   -271.59567    53.719103   -24471.201    1973.6264   -22497.574 
98640000    298.59665    298.37654   -7.8372565      37.6882   -24554.138    1971.4827   -22582.655 
98650000    298.47676    297.89556    651.66599    21.499889   -24385.678    1970.6911   -22414.986 
98660000    310.98189    298.02367    1051.3675    185.64115   -24430.532    2053.2561   -22377.276 
98670000    294.25016    298.11733    1018.3978    39.822574   -24426.922     1942.785   -22484.137 
98680000    302.57433    297.85684    6.6163853    62.692966   -24383.212    1997.7453   -22385.466 
98690000    288.55785    298.04369   -949.21559    56.939941   -24462.667    1905.2015   -22557.466 
98700000    301.82626    298.15852   -260.90094   -32.924757    -24570.27    1992.8062   -22577.463 
98710000    307.26706    298.28327   -53.795578   -106.44431   -24556.399     2028.729    -22527.67 
98720000    298.78424    297.99862    191.55326   -15.242152   -24368.037    1972.7212   -22395.315 
98730000    306.66448    297.99453    380.27318    16.440002   -24565.694    2024.7505   -22540.944 
98740000    298.89222    298.11584    5.0099351    3.7745104   -24480.526    1973.4342   -22507.092 
98750000    293.60501    298.06805   -706.64747   -38.911288     -24517.2    1938.5254   -22578.675 
98760000    302.48075    297.91285    64.620271   -4.3545115   -24553.673    1997.1274   -22556.545 
98770000     294.8522    297.75822     225.5589    2.4089199    -24540.37      1946.76    -22593.61 
98780000    292.28312    297.65767     474.2503    44.352128    -24535.01    1929.7976   -22605.213 
98790000     300.2184    297.82082    322.29886    97.000978   -24496.112    1982.1902   -22513.921 
98800000     305.6861    298.45029    447.41998    -60.44228   -24462.682    2018.2907   -22444.392 
98810000    297.06794    298.59342     134.4173   -12.709271   -24590.883    1961.3894   -22629.493 
98820000    298.54565    298.02302    635.09446    171.05601   -24450.244     1971.146   -22479.098 
98830000    301.33711    298.25605    111.33935    72.363309   -24536.657    1989.5766    -22547.08 
98840000     304.6104    298.05062    -23.07985   -172.24296   -24583.178    2011.1884    -22571.99 
98850000    295.16543    298.42211   -204.49151   -138.59511   -24553.241    1948.8281   -22604.412 
98860000     299.5505    297.75302    555.75686    2.5539508   -24534.478    1977.7805   -22556.698 
98870000    294.95003    297.20853    377.43265   -9.1579124   -24475.524    1947.4059   -22528.118 
98880000    301.51077    297.91847    140.68279   -26.213692   -24480.075    1990.7231   -22489.352 
98890000    291.40362    298.25396    69.456831   -3.5619238   -24570.039    1923.9907   -22646.049 
98900000    303.56793    297.69638   -376.34651   -17.326875   -24546.967    2004.3055   -22542.662 
98910000     298.6037    297.90555    161.29808    80.309755   -24511.447    1971.5292   -22539.918 
98920000    297.93833     297.8764    390.78961    -100.6746   -24627.871    1967.1361   -22660.735 
98930000    296.27428    297.68508    370.96068    21.335077   -24635.658    1956.1493   -22679.508 
98940000    304.79516    297.69792    102.39384    -13.74271   -24514.129    2012.4083   -22501.721 
98950000    303.25327    298.37468    366.40741    23.826085   -24420.066     2002.228   -22417.838 
98960000    289.27489     298.0554    60.506425   -36.514351   -24432.581    1909.9358   -22522.645 
98970000    293.76647    298.12678   -287.55653   -144.87593   -24559.533    1939.5914   -22619.941 
98980000    293.07868    298.37188   -503.65196    65.413295   -24518.111    1935.0503   -22583.061 
98990000    301.00279    297.76907   -335.57428   -146.41542    -24405.22    1987.3692   -22417.851 
99000000    292.40747    297.63248   -322.98695   -148.03768   -24437.158    1930.6187   -22506.539 
99010000    303.30153    297.82355   -83.022535    81.586494   -24447.086    2002.5466    -22444.54 
99020000    300.41369    298.20973    752.87786   -23.232891   -24514.701    1983.4797   -22531.222 
99030000    296.27373    298.26459     427.9097    52.316419   -24500.733    1956.1456   -22544.587 
99040000    300.00999     297.8487   -622.17423   -76.894598   -24500.379    1980.8143   -22519.565 
99050000    288.76559    298.00371   -466.63101   -58.508725    -24443.06    1906.5732   -22536.487 
99060000    300.24964    298.05117   -350.15738   -66.094949   -24463.153    1982.3965   -22480.756 
99070000    302.83451    298.23914    395.46458    35.596746   -24527.867    1999.4631   -22528.404 
99080000     291.6205    298.15524   -19.608307   -9.7272522   -24512.108    1925.4227   -22586.685 
99090000    301.51424    298.08397   -635.50887   -31.857659     -24552.8     1990.746   -22562.054 
99100000    290.36452    298.21969    640.48367    94.716269   -24547.735    1917.1301   -22630.605 
99110000    291.83512    298.19507    29.823994    19.203826   -24471.941    1926.8397   -22545.101 
99120000    297.00942    298.20421   -154.35765    62.332567   -24500.405     1961.003   -22539.402 
99130000    311.79748    298.22825   -129.77319   -20.165223   -24580.918    2058.6411   -22522.277 
99140000    303.87836    298.08323    563.72012    63.976116   -24474.248    2006.3551   -22467.893 
99150000    293.64399    298.00503    369.32258   -27.599658   -24505.416    1938.7828   -22566.633 
99160000    298.91107    297.77671   -49.998512   -92.532872   -24568.375    1973.5586   -22594.816 
99170000    303.39527    298.00699   -42.552729    -41.00603   -24563.925    2003.1655    -22560.76 
99180000    300.28694    298.30669   -479.06913    17.939984   -24480.358    1982.6428   -22497.715 
99190000    305.14815    297.76797   -479.46067    -120.0367   -24553.326    2014.7389   -22538.587 
99200000    295.72906     297.9205     -438.747   -115.21412    -24457.01    1952.5494   -22504.461 
99210000    300.52041    298.16475    365.19834   -50.982678   -24478.703    1984.1843   -22494.519 
99220000    300.73368    298.07069   -194.45299   -44.354598   -24499.667    1985.5924   -22514.075 
99230000    301.73775     298.7682    241.60578     92.09578   -24396.658    1992.2218   -22404.436 
99240000    301.50289    298.15928   -117.26424    69.811719   -24368.933    1990.6711   -22378.262 
99250000    296.84843    297.94823    313.06907   -70.261335   -24456.654    1959.9401   -22496.714 
99260000    296.38537     298.0754   -293.22731    11.352935   -24518.866    1956.8827   -22561.983 
99270000    296.42208     297.7418   -213.69743     70.19198   -24527.306    1957.1251   -22570.181 
99280000    302.55268    298.19141    335.22214    48.415412   -24515.866    1997.6023   -22518.263 
99290000    292.80835    297.69256    325.56635    18.985792   -24412.786    1933.2655    -22479.52 
99300000    299.71793    297.93566   -183.92032    25.413584   -24503.235    1978.8859   -22524.349 
99310000     297.8017    297.87118   -439.22039   -92.597464   -24496.121     1966.234   -22529.887 
99320000    297.26887    297.74479   -525.51625   -163.63562   -24418.027     1962.716    -22455.31 
99330000    296.23885    297.95308    173.72754   -76.753774   -24486.193    1955.9153   -22530.278 
99340000    293.53621    298.44208   -504.05668   -59.820485    -24506.71    1938.0712   -22568.638 
99350000    294.90803    297.92349    311.28187    77.951341   -24419.567    1947.1286   -22472.439 
99360000    301.17235    298.56404    -57.94566    37.362564   -24487.969    1988.4887   -22499.481 
99370000    297.74447    298.33441    263.25106   -36.522597   -24603.361    1965.8561   -22637.504 
99380000    291.71601     297.8706   -21.037261    35.431459   -24518.414    1926.0533    -22592.36 
99390000    301.90051    298.36321   -60.574519    109.64972   -24535.518    1993.2964   -22542.222 
99400000    299.27297     298.0528   -432.76446    34.758072   -24577.799    1975.9481   -22601.851 
99410000    296.45069    297.86211   -239.83636   -41.928307   -24491.408     1957.314   -22534.094 
99420000    294.43857    297.86348    530.80124    -4.436283    -24460.32     1944.029   -22516.291 
99430000    295.27015     297.8842    321.98336    79.154018   -24502.784    1949.5194   -22553.265 
99440000    303.70685    297.92815    117.11142    -86.23357   -24518.733    2005.2227    -22513.51 
99450000    295.50614    298.01263   -364.42607    87.928015   -24476.846    1951.0776   -22525.769 
99460000    299.48351    298.17606    191.99896    51.524095   -24494.144    1977.3382   -22516.806 
99470000    289.63851    298.10542   -348.65372   -39.829791   -24486.412    1912.3366   -22574.075 
99480000     299.1625    298.19981    173.36086   -22.304987   -24424.623    1975.2187   -22449.404 
99490000    285.78373     297.3405    497.66003    7.4233927    -24557.87    1886.8855   -22670.984 
99500000    306.99769    297.69471   -556.99072   -68.075275   -24472.191    2026.9505    -22445.24 
99510000    293.70851    297.99479   -309.30205    95.138976   -24448.667    1939.2088   -22509.459 
99520000     298.0786     298.0499      35.4709    19.143539   -24420.094    1968.0623   -22452.032 
99530000    301.29004    298.22789    264.78145   -19.798247   -24575.082    1989.2658   -22585.816 
99540000    287.91986     298.1557   -243.99352    132.36371   -24534.267    1900.9892   -22633.277 
99550000     305.3711    297.71455    214.96736   -18.604348   -24488.797     2016.211   -22472.586 
99560000    293.84504    297.83397   -8.3376123   -23.370521    -24427.99    1940.1102    -22487.88 
99570000    305.82857    297.49577    249.84791   -92.924316   -24497.948    2019.2314   -22478.716 
99580000    300.64585    297.84565    146.22032   -42.695518   -24539.859    1985.0125   -22554.846 
99590000    296.92114    297.93367     209.1799   -138.61988   -24461.737    1960.4201   -22501.317 
99600000    294.75243    298.12464    183.60462   -56.172636   -24506.796    1946.1013   -22560.695 
99610000    292.31508    297.46179   -477.03167   -59.694472   -24439.539    1930.0087    -22509.53 
99620000    294.60054     298.1669   -737.82449    77.531548   -24570.377    1945.0984   -22625.278 
99630000    296.60979    297.94685    30.711742   -7.5366178   -24498.904    1958.3644    -22540.54 
99640000    296.38162    298.48756   -9.3742958   -31.551424   -24601.596    1956.8579   -22644.738 
99650000    293.50119    297.79201   -96.896857   -50.173833   -24573.243    1937.8399   -22635.403 
99660000    305.40621    298.09168   -505.19001    -68.09593    -24616.32    2016.4428   -22599.878 
99670000    295.75284    297.82153    214.78212   -125.68955   -24508.856    1952.7064    -22556.15 
99680000    293.26213    298.23381   -79.900962   -9.6357663   -24534.037    1936.2616   -22597.775 
99690000    293.06582     297.6003   -197.03957    45.079231   -24470.247    1934.9654   -22535.282 
99700000     296.4705    297.99259   -262.70228    49.194264   -24539.022    1957.4448   -22581.577 
99710000    303.34285    298.13526   -364.23767   -45.841169   -24475.057    2002.8194   -22472.238 
99720000    293.68187    297.99078    230.47471    37.224112   -24455.426    1939.0329   -22516.393 
99730000    289.62414    298.20588    413.02936   -22.633219   -24569.688    1912.2417   -22657.447 
99740000    295.38421    298.02754    276.96136   -45.975657   -24431.716    1950.2725   -22481.443 
99750000     297.5719    298.57818   -530.49459    60.373617   -24471.597    1964.7167   -22506.881 
99760000    292.19451    297.79378   -565.74765   -2.0805914   -24553.482    1929.2126   -22624.269 
99770000    302.70111    297.75627    -535.1182   -69.296202   -24470.937    1998.5823   -22472.355 
99780000    293.23288    297.88811   -44.541004   -35.200674   -24503.064    1936.0684   -22566.996 
99790000    303.54795    297.76245   -241.17767   -87.226856   -24514.762    2004.1736   -22510.589 
99800000    292.51554    298.19397   -677.09649   -17.303605   -24530.016    1931.3321   -22598.684 
99810000    295.56953    297.65176    374.30538   -2.4382895   -24494.121    1951.4962   -22542.624 
99820000    305.76093    297.30248    315.51269   -36.270893   -24517.969    2018.7848   -22499.184 
99830000    294.57752    297.78019   -72.537731   -115.90062   -24470.131    1944.9464   -22525.185 
99840000     304.1339    297.93642   -69.613781   -19.491633   -24477.726    2008.0423   -22469.684 
99850000    294.63495    298.07659    172.02578   -55.743429   -24517.503    1945.3256   -22572.177 
99860000    288.73424    298.13917     648.2938   -37.438311   -24520.617    1906.3661   -22614.251 
99870000    299.26953    297.95846   -225.31302   -50.293039     -24527.3    1975.9253   -22551.375 
99880000    297.70162    298.21023   -643.22473    111.58083   -24552.695    1965.5733   -22587.122 
99890000    301.18331    298.27639    120.14509   -26.662743    -24416.16    1988.5611   -22427.599 
99900000    299.51779    298.10232   -146.39887    90.660356    -24426.24    1977.5645   -22448.676 
99910000    296.69152    297.68873    62.246266    52.505434   -24436.192    1958.9041   -22477.288 
99920000    293.74362    297.88997   -213.38605    20.899181   -24591.961    1939.4406   -22652.521 
99930000     300.1349     298.2599    526.86004   -58.413417   -24461.752     1981.639   -22480.113 
99940000    295.27256    297.38082   -596.03652    69.240148   -24476.561    1949.5354   -22527.025 
99950000    294.97508     298.1293   -318.30559   -36.923867   -24561.251    1947.5713    -22613.68 
99960000    308.03023    298.15966    603.80724    188.58375   -24576.883    2033.7678   -22543.115 
99970000    292.10345     298.1803   -108.48654    68.247253   -24485.204    1928.6114   -22556.593 
99980000    306.12379    298.22681    245.49093    42.287795   -24557.755    2021.1805   -22536.575 
99990000    292.54486    297.51437   -214.50501    145.18315   -24504.595    1931.5257    -22573.07 
100000000    286.21222    297.96813   -127.96953    1.5658887   -24487.343    1889.7145   -22597.629 
Loop time of 93880.8 on 128 procs for 100000000 steps with 3216 atoms

Performance: 184.063 ns/day, 0.130 hours/ns, 1065.181 timesteps/s
99.4% CPU use with 128 MPI tasks x no OpenMP threads

MPI task timing breakdown:
Section |  min time  |  avg time  |  max time  |%varavg| %total
---------------------------------------------------------------
Pair    | 20290      | 24109      | 27338      |1179.2 | 25.68
Bond    | 8.5388     | 9.7734     | 14.688     |  28.1 |  0.01
Kspace  | 39692      | 42867      | 46733      | 894.2 | 45.66
Neigh   | 2991.7     | 3015.3     | 3039.7     |  22.8 |  3.21
Comm    | 11620      | 12450      | 13124      | 330.1 | 13.26
Output  | 4.2249     | 86.451     | 102.09     | 169.2 |  0.09
Modify  | 9100.8     | 9735.1     | 10322      | 333.3 | 10.37
Other   |            | 1608       |            |       |  1.71

Nlocal:    25.125 ave 34 max 16 min
Histogram: 1 4 14 20 15 30 27 11 4 2
Nghost:    2887.99 ave 2911 max 2869 min
Histogram: 6 11 18 17 25 20 11 10 6 4
Neighs:    9316.58 ave 12620 max 6169 min
Histogram: 5 9 12 19 19 23 20 11 5 5

Total # of neighbors = 1192522
Ave neighs/atom = 370.809
Ave special neighs/atom = 1.86567
Neighbor list builds = 8627039
Dangerous builds = 0

quit
