3216
Atoms. Timestep: 0
O 17.8924 3.65693 12.1412
H 17.9653 2.80739 11.7062
H 18.794 3.9718 12.2055
O 11.3044 1.23207 24.6368
H 10.574 33.2764 24.0957
H 11.6765 32.7744 25.0037
O 9.10622 5.25368 2.12376
H 9.66586 5.18874 1.34992
H 8.409 5.85663 1.86578
O 3.72846 22.1611 28.8069
H 3.89773 21.3626 29.3069
H 4.07711 21.9767 27.9348
O 25.53 27.1961 1.48096
H 26.4865 27.1797 1.51144
H 25.3225 27.4128 32.9163
O 28.2179 17.0975 23.3279
H 28.1615 18.0529 23.3085
H 27.3845 16.8156 23.7051
O 20.5729 1.65919 9.6094
H 19.949 1.24527 10.2058
H 20.8706 33.2923 9.04214
O 14.563 1.95619 20.2246
H 15.4528 1.60754 20.1705
H 14.1762 1.76033 19.3713
O 27.4986 9.87304 15.7581
H 28.3641 10.2784 15.8107
H 27.4662 9.48923 14.8818
O 1.94356 1.99723 33.1284
H 2.55213 2.52409 32.6104
H 2.50194 1.37657 1.25224
O 3.18357 25.8262 20.4112
H 3.30732 26.4341 19.6823
H 2.23538 25.7934 20.538
O 32.8077 26.1064 20.1475
H 32.5947 26.9785 20.4797
H 32.7241 26.1845 19.1972
O 21.1977 27.313 25.7367
H 21.3102 26.4147 26.0477
H 21.9408 27.4591 25.1513
O 10.1593 14.5925 23.461
H 9.81573 15.0164 24.2474
H 10.9774 15.0544 23.2774
O 10.4961 31.0115 27.9542
H 10.3937 31.8825 28.3378
H 11.0002 31.1593 27.1541
O 11.4683 9.0184 20.3934
H 11.2347 8.87686 19.476
H 10.702 9.44887 20.7725
O 25.6082 28.9937 25.0276
H 25.5306 29.7611 24.4607
H 25.9129 29.3436 25.8648
O 24.3493 26.674 5.49984
H 24.9947 26.454 4.82808
H 23.5175 26.3594 5.14574
O 28.4632 10.0312 7.80177
H 28.3706 10.1533 8.74662
H 28.5406 10.9186 7.45153
O 22.3166 22.7056 20.2286
H 21.7868 23.4778 20.0305
H 22.3064 22.1937 19.4199
O 22.8701 20.2754 9.63108
H 23.2485 19.4089 9.48184
H 23.4179 20.8683 9.11662
O 6.53504 19.3759 10.4737
H 7.34028 19.6127 10.9338
H 6.25412 18.5592 10.8863
O 11.2486 27.6305 25.1377
H 11.2238 27.0977 25.9325
H 12.132 27.5041 24.7915
O 13.9316 17.7204 29.1889
H 14.139 17.3955 28.3127
H 13.3905 18.495 29.0357
O 29.1432 17.3141 16.7104
H 28.7272 18.1761 16.703
H 28.9064 16.9406 17.5593
O 9.72935 17.793 17.3852
H 9.47125 16.9913 16.9303
H 10.2167 17.4883 18.1506
O 2.28669 14.4038 10.5461
H 3.0904 13.9773 10.8435
H 1.77153 13.6985 10.1544
O 8.90808 15.2974 16.3736
H 9.50257 14.7386 15.8731
H 8.36905 15.7289 15.7107
O 29.2033 3.20018 1.96058
H 29.6443 3.9245 1.51657
H 29.5882 2.41279 1.57568
O 31.5368 10.3526 19.0419
H 31.7935 9.9687 19.8803
H 31.407 9.60107 18.4635
O 14.9366 6.37563 2.4531
H 15.6101 7.02801 2.6456
H 15.27 5.56555 2.83899
O 23.1933 7.19753 31.5707
H 24.0462 7.01685 31.1757
H 22.8288 6.33305 31.7606
O 18.4933 14.7376 15.3711
H 19.1356 14.0292 15.328
H 17.8434 14.4341 16.0049
O 27.5023 1.49974 27.6319
H 28.3758 1.59651 27.2525
H 27.5279 2.0265 28.4307
O 30.4322 24.434 4.73668
H 29.5332 24.1054 4.72809
H 30.9554 23.6938 5.04409
O 12.8094 11.9379 19.3651
H 13.5046 11.8702 18.7106
H 12.0338 11.5853 18.9287
O 2.04731 9.11074 1.18354
H 2.58915 8.73716 1.87857
H 1.32882 9.54282 1.6454
O 31.7457 20.2555 20.7621
H 31.0055 20.8129 20.5222
H 31.8739 20.416 21.697
O 4.51236 15.0153 29.2732
H 4.42303 14.0999 29.008
H 5.33928 15.2986 28.8831
O 10.5763 28.0954 33.0961
H 11.3169 27.8854 32.5271
H 9.86607 28.3165 32.4937
O 13.8751 30.0561 33.1718
H 13.077 30.5628 33.0215
H 14.1062 29.711 32.3095
O 16.8718 29.5112 7.99908
H 16.2365 30.0776 8.43723
H 16.4982 28.6327 8.06876
O 9.54967 18.3795 30.1173
H 9.32142 19.0715 30.7381
H 10.3445 18.6954 29.6875
O 3.65747 27.3731 18.2831
H 3.0299 27.2153 17.5778
H 3.66242 28.3241 18.3917
O 31.9461 3.3977 26.5073
H 31.4227 4.06499 26.9512
H 31.5848 2.56606 26.814
O 1.39757 22.3994 29.9279
H 2.26274 22.3923 29.5185
H 1.53299 21.9897 30.7823
O 1.48439 8.88399 14.2756
H 0.970263 8.36255 13.6591
H 2.03531 8.24568 14.7286
O 15.5773 12.2867 17.4219
H 15.2364 12.7188 16.6387
H 16.1494 11.5969 17.0855
O 0.983475 26.1323 4.91303
H 1.77442 26.6148 4.67265
H 1.26699 25.5373 5.60721
O 32.969 28.6867 3.13377
H 32.1849 28.1511 3.25441
H 1.14294 28.2106 2.48495
O 7.44411 16.6987 6.59281
H 7.08681 17.5345 6.89284
H 7.23968 16.0837 7.29715
O 4.11546 21.7178 2.10376
H 4.89379 21.4916 1.59458
H 4.0596 22.6716 2.04585
O 14.7812 24.2699 16.4664
H 13.8456 24.2625 16.2643
H 14.843 24.7365 17.2999
O 28.6404 4.27195 11.5958
H 29.528 4.34164 11.2442
H 28.2942 3.46486 11.2151
O 13.5553 19.1585 4.48539
H 13.4942 18.3236 4.94965
H 13.4911 19.8209 5.17335
O 32.2063 14.9463 14.0162
H 33.0194 15.3872 14.2626
H 32.4434 14.0208 13.9575
O 24.3388 24.9413 7.53318
H 24.406 25.425 8.35642
H 24.2016 25.6164 6.86865
O 25.2904 22.3281 11.7504
H 26.1298 21.9186 11.5406
H 25.4975 23.2559 11.8625
O 6.22666 19.119 7.74783
H 6.61634 19.3264 8.59718
H 6.40034 19.891 7.20922
O 17.2628 8.62914 20.1823
H 17.7805 9.27198 19.6975
H 17.6773 7.7892 19.9849
O 24.1074 5.09804 14.7335
H 24.8059 5.69635 14.9987
H 23.8325 5.41609 13.8736
O 2.86625 15.0865 26.8991
H 2.10818 15.6631 26.8041
H 3.39774 15.499 27.58
O 27.7392 7.0371 0.992428
H 27.7 7.85602 1.48646
H 28.6662 6.79849 0.996594
O 12.2631 6.39352 13.2143
H 11.5822 5.7871 12.9231
H 11.8585 7.25846 13.1482
O 27.9542 27.6084 28.8047
H 27.0012 27.632 28.8913
H 28.2144 26.7953 29.2376
O 16.665 13.431 10.9192
H 17.4744 13.873 10.6629
H 16.0637 13.5904 10.1916
O 7.79264 5.86212 8.93431
H 8.14934 5.07671 9.34918
H 8.0423 5.78172 8.01374
O 4.76187 16.5078 4.34838
H 4.87758 15.7276 4.89065
H 5.05752 16.2411 3.47793
O 24.3167 9.56274 15.0861
H 23.3763 9.52565 14.9117
H 24.6373 10.2684 14.5243
O 1.57204 2.86428 29.9021
H 1.20757 1.97974 29.9336
H 2.37858 2.80991 30.4147
O 8.65812 9.31989 21.3975
H 8.95849 9.09525 22.2781
H 8.2605 8.51442 21.0668
O 30.5043 32.3834 30.5019
H 30.8802 32.6066 29.6503
H 30.8846 33.0205 31.1065
O 5.06736 5.87915 7.63002
H 4.96265 6.21743 6.74073
H 5.79671 6.38133 7.99348
O 26.7467 9.31445 2.32451
H 27.6202 9.65891 2.13874
H 26.3516 9.96341 2.90676
O 31.9371 33.1064 3.72921
H 32.2393 32.636 2.95229
H 32.1987 32.5505 4.46322
O 17.2569 14.2425 27.7577
H 17.0673 14.101 28.6852
H 16.4122 14.4764 27.373
O 32.6723 13.9607 22.2766
H 33.2354 13.4262 22.8364
H 32.7924 13.5978 21.399
O 17.106 14.5208 18.2053
H 16.7287 13.6423 18.1602
H 16.3679 15.1077 18.0411
O 31.6944 20.2702 30.232
H 30.839 19.8416 30.2043
H 32.1699 19.8123 30.9251
O 12.8121 5.59019 24.892
H 12.6755 5.53923 23.9459
H 13.6223 6.09023 24.9909
O 10.2042 28.325 7.97531
H 9.73543 27.5025 8.11661
H 10.8423 28.363 8.68782
O 30.0959 19.6176 25.8377
H 29.1562 19.5184 25.9908
H 30.5056 19.0253 26.4683
O 32.5971 31.2239 6.03704
H 32.5151 30.4021 6.52077
H 32.1564 31.8713 6.58739
O 14.7546 22.1047 2.57019
H 15.5698 22.5023 2.26413
H 14.6397 22.4454 3.45728
O 22.7016 30.2887 8.4609
H 22.0809 30.9648 8.18919
H 23.384 30.7654 8.93339
O 24.6861 5.71583 24.0668
H 24.8037 4.78315 23.8864
H 23.7677 5.88675 23.8582
O 5.57382 4.08331 27.0821
H 5.38399 4.82524 26.5079
H 5.68667 4.47341 27.9489
O 20.1469 24.4685 6.20768
H 19.5793 23.7596 5.9052
H 20.9979 24.28 5.81198
O 31.117 32.9499 7.53943
H 30.7376 1.48393 7.56586
H 30.7988 32.5269 8.33697
O 16.8693 32.9243 20.4608
H 17.5469 33.2889 21.03
H 16.6025 32.1135 20.894
O 1.23169 9.23162 4.95892
H 2.14314 9.02802 5.16877
H 33.2325 8.42536 4.57396
O 11.6488 13.5682 2.64132
H 10.9044 13.6672 3.23482
H 11.2927 13.7646 1.7748
O 10.9074 16.2318 7.88432
H 10.4618 16.4854 7.07601
H 10.8586 17.0099 8.43962
O 22.2689 5.51793 19.9364
H 21.4074 5.27425 20.275
H 22.2015 6.4567 19.762
O 26.1144 14.3017 1.78443
H 26.5388 13.6587 2.3525
H 26.8312 14.686 1.27963
O 15.8463 27.6558 15.7557
H 16.3468 27.2271 15.0615
H 16.0351 28.5879 15.6471
O 6.68344 25.1636 30.8556
H 6.1721 25.275 30.0541
H 6.34295 25.8302 31.4522
O 19.3571 26.1395 29.4445
H 18.6443 26.1599 30.0831
H 19.5034 27.0581 29.2188
O 9.76038 8.48105 28.9361
H 9.58042 7.80606 28.2817
H 10.5001 8.97161 28.5777
O 20.6111 9.93489 3.34573
H 20.0489 9.57932 2.65749
H 20.0323 10.495 3.86295
O 6.4854 4.2659 3.73567
H 7.43916 4.21393 3.79789
H 6.28326 3.93053 2.86223
O 29.776 29.1459 30.1545
H 29.0166 28.8215 29.6705
H 30.5296 28.777 29.6938
O 4.65656 30.4533 15.0507
H 5.3821 31.0322 14.817
H 4.71342 29.7322 14.4237
O 25.2398 29.1225 10.9645
H 24.8927 28.2314 11.0068
H 24.4673 29.6842 11.0277
O 23.4925 31.1207 31.2841
H 24.2504 30.7052 31.6955
H 23.7494 31.2364 30.3693
O 12.9921 5.91969 21.4041
H 12.3322 6.00692 20.7163
H 13.7141 5.45051 20.9859
O 9.97816 3.30964 32.0609
H 10.7785 2.78482 32.0745
H 9.29797 2.71838 32.3833
O 22.7414 29.7581 17.2609
H 22.1694 29.2575 17.8427
H 22.2419 30.5482 17.0549
O 18.9753 24.6515 8.88595
H 19.3259 24.659 7.99528
H 18.9912 23.7294 9.14233
O 12.7889 17.1547 6.304
H 12.2398 16.7947 7.00048
H 12.3995 16.8222 5.49528
O 13.6447 26.8091 14.5263
H 13.4677 25.9783 14.9675
H 14.3156 27.2287 15.0649
O 32.4948 33.2066 20.3856
H 33.2423 1.25941 20.8326
H 32.8854 32.6631 19.7014
O 6.14087 20.4443 33.1359
H 6.03488 21.0729 32.4219
H 5.98937 19.5912 32.7291
O 15.6128 25.3546 24.461
H 14.9893 25.0916 25.138
H 16.0741 24.5474 24.233
O 12.5864 2.92112 1.45759
H 13.2727 2.99988 33.1394
H 12.591 1.99487 1.69899
O 32.2601 25.2286 26.6657
H 31.7021 25.9919 26.5162
H 33.1401 25.591 26.7682
O 30.5861 10.4831 4.88882
H 30.1567 11.3184 5.07321
H 30.1666 10.1693 4.08766
O 28.5021 26.863 26.29
H 29.4091 27.1365 26.153
H 28.2834 27.1864 27.164
O 12.2416 28.2483 12.5445
H 12.2213 29.0619 13.0485
H 12.772 27.6519 13.0729
O 8.3096 9.67881 4.08879
H 7.75989 10.4624 4.09798
H 7.85476 9.0734 3.50327
O 24.6347 12.8147 32.3779
H 23.6983 12.794 32.5755
H 25.0163 13.343 33.0789
O 14.2803 19.7226 22.8264
H 15.0339 20.1001 23.2802
H 13.6006 20.3935 22.8909
O 3.001 7.80551 8.19699
H 2.07467 7.66738 7.9993
H 3.40539 6.94834 8.06297
O 11.065 6.75255 9.87378
H 11.9904 6.52718 9.77914
H 10.6109 5.90996 9.86678
O 32.8172 7.03881 7.80385
H 32.9071 6.48173 8.57704
H 33.0975 6.48502 7.07516
O 26.8465 22.9667 7.05262
H 27.6527 22.5723 7.38532
H 26.1734 22.3041 7.20805
O 1.35803 12.5172 5.03344
H 33.177 13.3168 5.06317
H 1.76897 12.4678 5.89652
O 29.6591 3.983 17.2277
H 29.7718 4.07839 18.1734
H 29.8075 3.05219 17.061
O 12.6794 16.0946 23.2393
H 13.3996 15.7196 22.7325
H 13.0639 16.2909 24.0937
O 33.0031 21.4031 13.1039
H 1.60181 21.2765 13.2084
H 32.7351 21.8726 13.8938
O 18.2728 18.1393 15.3654
H 18.135 18.2752 16.3029
H 17.4313 18.3579 14.965
O 26.4377 25.8539 19.4967
H 27.3266 25.8054 19.8485
H 26.2307 26.7884 19.4957
O 26.679 12.7086 30.4323
H 26.259 12.5032 29.597
H 25.9574 12.7511 31.0597
O 14.2897 10.1669 2.48886
H 13.6144 9.66532 2.03215
H 14.9566 9.51932 2.71702
O 0.988101 11.6542 8.77318
H 1.33209 11.5823 9.66355
H 32.7067 10.9336 8.69881
O 3.57464 25.5573 12.4946
H 3.5826 26.5143 12.5125
H 2.86506 25.3344 11.8921
O 9.46922 20.2763 32.1063
H 9.05013 19.6719 32.7188
H 10.0957 20.7639 32.6411
O 12.0046 1.29137 31.1782
H 11.3758 1.23509 30.4587
H 12.6003 1.99542 30.9219
O 19.3259 27.0948 10.9353
H 19.2792 27.5695 11.7651
H 20.0532 26.483 11.0494
O 23.137 26.1797 16.7531
H 22.4848 26.6988 16.2826
H 22.775 25.2937 16.7658
O 27.7031 32.361 2.08185
H 28.1371 31.5554 1.80122
H 27.9075 32.9955 1.39497
O 28.0356 14.8465 21.6703
H 28.0465 15.7043 22.0948
H 27.8758 15.038 20.7462
O 32.7966 5.91915 10.4864
H 32.2551 5.15156 10.3024
H 32.1948 6.54713 10.8861
O 30.1108 30.8884 9.51946
H 30.0861 31.6111 10.1466
H 31.0419 30.6911 9.41726
O 20.5169 20.903 25.5426
H 20.4783 20.4506 26.3852
H 20.1858 20.2639 24.9116
O 18.2345 31.995 24.2549
H 17.5354 31.6571 24.8146
H 18.3879 31.299 23.6159
O 7.74007 19.12 19.7371
H 6.81603 19.3696 19.7452
H 7.88521 18.7654 18.86
O 22.9837 4.51404 9.52162
H 23.1934 4.06823 10.3423
H 23.8163 4.55529 9.05134
O 21.1431 13.3594 9.93628
H 21.0619 12.4321 10.1593
H 22.0163 13.4383 9.55228
O 31.0159 17.2071 28.3116
H 30.3032 17.654 28.7683
H 30.7416 16.2907 28.2772
O 26.0753 11.5086 9.24297
H 26.6874 11.953 9.82955
H 25.7355 12.2036 8.67929
O 31.7959 17.083 11.2998
H 32.6676 17.0968 10.9047
H 31.2383 17.5353 10.6667
O 28.8168 12.3732 15.8377
H 28.0245 12.6548 16.295
H 28.7363 12.7523 14.9624
O 10.8175 15.8268 29.8738
H 11.1589 16.5114 29.2983
H 11.3762 15.8651 30.65
O 9.49429 13.1214 29.8493
H 9.73684 14.0325 29.684
H 10.3272 12.65 29.8627
O 5.38296 8.83016 22.6723
H 5.44706 7.87891 22.5871
H 5.72385 9.01624 23.5472
O 7.34668 19.2145 28.7771
H 7.35907 19.1822 27.8205
H 8.18731 18.8403 29.0407
O 32.9167 28.1245 14.7603
H 32.6715 28.7188 15.4695
H 1.48946 27.9111 14.9322
O 9.07598 5.75334 22.4306
H 8.43644 5.13607 22.0753
H 9.66346 5.9385 21.6979
O 18.4235 22.6122 5.21813
H 18.4838 21.7624 5.65441
H 17.7401 23.0803 5.69779
O 28.7527 14.279 33.2058
H 29.3898 14.3554 1.57176
H 28.9165 13.4148 32.8283
O 3.08674 17.6792 12.2483
H 3.0349 18.623 12.3993
H 2.78685 17.2881 13.0689
O 17.2484 7.30052 27.0845
H 17.3697 7.15979 26.1455
H 16.7292 6.55053 27.3745
O 5.7031 26.3343 25.4274
H 4.83731 26.5013 25.7999
H 6.00542 25.5408 25.8691
O 2.88997 12.3425 32.1812
H 2.06596 12.076 31.7735
H 2.81706 13.2927 32.2708
O 29.2302 26.1583 19.6898
H 29.4959 26.0136 20.5979
H 29.5992 27.0124 19.4649
O 29.378 19.0668 1.11099
H 30.2296 19.3644 33.1354
H 29.3928 18.118 0.985588
O 12.9508 13.5781 28.5728
H 12.3558 12.9343 28.9569
H 12.4557 13.9603 27.8482
O 12.5718 32.6791 2.5531
H 12.6141 32.9528 3.46936
H 13.487 32.5979 2.28444
O 27.3407 19.2402 26.5613
H 27.0099 19.4534 27.4339
H 26.9125 19.8704 25.9819
O 26.3496 13.9216 17.329
H 26.7246 14.4411 18.0401
H 26.2291 14.5459 16.6134
O 26.5108 15.7629 10.8095
H 26.057 15.0582 11.2717
H 27.4401 15.5873 10.9572
O 16.9114 26.4482 18.0981
H 16.4988 26.7892 17.3045
H 16.6741 27.0758 18.7807
O 25.0915 29.6731 29.0363
H 24.34 29.2722 28.5996
H 25.1749 29.1926 29.86
O 27.5834 15.8822 29.1624
H 27.612 16.3513 28.3286
H 28.3274 15.2811 29.1252
O 1.45935 13.0721 27.9204
H 1.02692 12.6615 27.1716
H 2.06109 13.7069 27.5316
O 32.0678 15.8927 16.9451
H 31.6709 15.6481 16.1091
H 32.9932 16.0279 16.741
O 25.2966 3.54962 12.3401
H 25.9109 3.10129 11.7589
H 25.6827 4.41487 12.4761
O 12.5632 28.7447 4.68338
H 11.9938 28.08 5.07085
H 12.4729 29.5036 5.2597
O 17.0203 13.5757 7.47463
H 17.1419 13.8532 6.56665
H 16.0754 13.6291 7.61748
O 25.9005 32.012 25.7972
H 25.5407 31.8504 24.9251
H 26.8494 31.9954 25.6722
O 24.1839 19.9361 21.6693
H 24.6489 19.621 22.4443
H 23.6134 20.631 21.9978
O 25.3333 5.73163 8.42549
H 25.4901 6.59499 8.04303
H 26.2001 5.42709 8.69396
O 4.71186 26.2049 22.6114
H 4.2206 26.178 21.7903
H 5.30986 25.4594 22.5578
O 21.9515 11.516 23.0098
H 21.89 12.4181 22.6957
H 22.7624 11.4936 23.5179
O 25.8815 26.8022 14.3563
H 25.6934 26.2572 15.1204
H 25.3341 27.5785 14.4745
O 6.64549 2.78113 10.7085
H 7.59852 2.86624 10.7356
H 6.47697 1.88079 10.9864
O 14.7798 29.5628 25.1846
H 13.9416 29.9594 25.422
H 14.8709 28.8195 25.7807
O 29.3186 25.6849 22.3286
H 29.2493 26.3783 22.9847
H 30.1707 25.2816 22.4947
O 29.4584 11.9465 32.0682
H 29.3765 11.4368 32.8743
H 30.4011 11.9944 31.9094
O 1.99792 6.27866 5.28684
H 2.94511 6.38392 5.19752
H 1.807 5.44672 4.85366
O 3.07132 10.0556 30.4212
H 2.35172 9.8131 29.8384
H 3.3674 10.9058 30.096
O 15.6942 10.3132 13.3551
H 15.8624 9.39973 13.5863
H 16.5473 10.7408 13.4304
O 11.7064 23.5522 13.3475
H 10.8723 23.1042 13.2068
H 11.6467 23.8964 14.2387
O 21.7801 14.0152 22.0954
H 21.5133 14.9135 22.2904
H 21.6891 13.9387 21.1456
O 20.3134 30.4671 11.2799
H 19.7433 31.2255 11.4066
H 20.185 30.2207 10.3639
O 5.01304 8.43852 31.841
H 4.61918 7.59681 31.6115
H 5.87209 8.2123 32.1974
O 19.2458 11.8696 21.0626
H 19.0882 12.8134 21.0877
H 18.3736 11.4791 21.1182
O 21.701 20.3697 12.1995
H 21.9664 20.4438 11.2828
H 20.7675 20.1612 12.163
O 30.9572 24.8742 8.11034
H 30.4894 24.1076 8.44155
H 30.8358 24.838 7.16156
O 23.572 19.4672 18.559
H 23.895 20.3239 18.2799
H 23.0085 19.1777 17.8414
O 19.4915 18.2564 4.3602
H 20.2567 18.4738 4.89267
H 19.5888 17.3233 4.16991
O 7.16219 1.16519 4.69056
H 7.93009 33.1996 4.21042
H 7.47628 1.29933 5.58475
O 22.0228 11.3271 30.9668
H 21.5833 10.492 31.1271
H 21.8832 11.8298 31.7694
O 1.45764 5.2024 0.974923
H 2.18939 4.88574 32.7896
H 1.69959 4.98232 1.87451
O 10.3603 32.5126 22.249
H 11.2457 32.4238 21.8961
H 10.024 0.972594 21.8538
O 22.2074 19.5541 1.01695
H 21.2518 19.5191 0.973788
H 22.4019 19.6578 1.94843
O 22.1031 6.8892 24.3158
H 21.7626 7.59759 23.7695
H 21.6856 6.09931 23.9723
O 11.6849 5.9352 33.2768
H 11.3815 6.19408 32.4067
H 11.6523 4.9786 33.2676
O 11.3136 7.72719 25.2749
H 11.8856 8.24926 25.8375
H 11.8092 6.9258 25.1064
O 16.6445 25.8048 11.3308
H 16.617 25.033 11.8962
H 15.7777 25.8366 10.9258
O 29.9525 22.049 20.1166
H 29.1914 21.473 20.0453
H 29.8249 22.5142 20.9433
O 1.30114 24.7735 7.26088
H 1.80325 25.1405 7.98852
H 32.7318 24.9439 7.48975
O 16.5118 8.53147 2.96343
H 17.2026 8.87631 2.39762
H 16.6849 8.92322 3.81947
O 16.2612 14.4216 13.3129
H 17.0281 14.0879 13.7784
H 16.3267 14.0396 12.4377
O 29.7093 30.1828 4.4408
H 30.2939 30.9119 4.64776
H 29.5176 30.286 3.5087
O 22.2695 32.4797 19.5647
H 22.4026 31.6062 19.1967
H 21.5323 32.3769 20.1665
O 23.2911 12.538 16.257
H 22.4252 12.7398 15.9025
H 23.8866 12.6544 15.5166
O 31.2916 3.52227 7.55673
H 31.591 3.36283 8.45184
H 32.0121 3.21773 7.00494
O 30.4736 8.63152 22.9481
H 30.3918 7.74903 22.5865
H 31.0454 8.52719 23.7086
O 22.9994 4.16167 17.4093
H 23.1609 3.224 17.514
H 22.5486 4.41881 18.2136
O 13.6338 8.19471 29.722
H 13.3867 8.63178 28.907
H 14.4449 8.62667 29.9896
O 15.2815 7.49435 13.3028
H 14.3733 7.24199 13.4695
H 15.365 7.47459 12.3495
O 5.32235 29.7627 26.6861
H 6.09778 29.4023 26.256
H 4.59808 29.226 26.3642
O 27.9188 23.4072 4.60135
H 27.8296 22.5356 4.21594
H 27.573 23.3137 5.48899
O 5.38071 20.6234 19.8677
H 5.8276 21.4679 19.8092
H 4.61957 20.7926 20.4229
O 17.3892 17.5417 22.5705
H 18.064 18.2167 22.6424
H 17.1285 17.3657 23.4746
O 14.5552 22.7671 10.1472
H 15.0263 23.0247 10.9396
H 13.744 22.3728 10.4677
O 3.0479 18.6311 4.63534
H 3.74624 18.0213 4.39719
H 2.38169 18.509 3.95896
O 32.4383 12.0566 14.1158
H 33.2581 11.5676 14.1868
H 32.0334 11.9732 14.9791
O 26.6426 23.4473 1.77756
H 26.8035 22.9672 2.58986
H 25.7602 23.8038 1.88019
O 10.4624 8.97361 13.1844
H 9.81529 8.87357 12.4862
H 10.8361 9.84332 13.0424
O 24.5364 29.0119 15.2641
H 24.3647 29.9407 15.1093
H 23.6775 28.6389 15.4628
O 25.5494 25.3328 16.906
H 24.7083 25.765 16.7573
H 25.6742 25.3704 17.8543
O 9.54531 33.179 2.52088
H 9.84815 1.68079 2.85053
H 9.00127 1.05279 1.76411
O 3.50437 21.8414 9.75848
H 3.96183 21.4674 10.5115
H 3.9337 22.6842 9.61116
O 4.68368 9.69463 27.49
H 3.80402 9.44397 27.2079
H 5.20035 9.70474 26.6843
O 27.7598 6.28362 17.2051
H 28.6124 6.49702 16.8259
H 27.1271 6.71586 16.6314
O 18.2365 32.7183 17.9295
H 17.8478 32.9164 18.7815
H 17.841 31.8852 17.6731
O 5.46461 7.71929 14.548
H 5.61335 6.77549 14.49
H 4.67176 7.80521 15.0773
O 13.4435 31.1433 16.4093
H 12.8832 30.9479 15.6583
H 14.3349 31.0846 16.0653
O 15.1562 28.7607 31.0035
H 15.9186 28.2299 31.2343
H 15.4312 29.2519 30.2293
O 3.78797 6.3676 29.9117
H 3.60003 5.51966 30.314
H 3.02081 6.55126 29.3695
O 27.8024 19.8338 15.8892
H 26.9669 19.3909 15.7413
H 28.1227 20.0414 15.0113
O 3.87388 9.27781 6.02785
H 4.80543 9.20217 5.82114
H 3.75005 8.71037 6.78871
O 31.5152 11.5921 11.5822
H 30.62 11.4051 11.2996
H 31.4366 11.7853 12.5164
O 32.6642 12.2898 25.6358
H 32.3923 11.4273 25.9496
H 31.8471 12.779 25.5402
O 30.56 20.8484 3.65411
H 31.1771 21.3057 3.0828
H 30.8358 21.0815 4.5406
O 26.4814 2.37944 3.16895
H 26.2597 1.50296 3.48335
H 25.7825 2.59712 2.55219
O 18.6365 3.8412 6.32278
H 19.5169 3.46553 6.32161
H 18.5567 4.26845 5.46994
O 29.3188 1.09544 4.15791
H 28.7483 33.0814 3.47794
H 30.1895 33.1068 3.94069
O 26.5419 15.1837 8.11156
H 26.6712 15.6444 8.94057
H 27.3517 14.69 7.98251
O 19.795 31.6376 28.0332
H 20.669 32.007 28.1596
H 19.363 31.7481 28.8802
O 8.74655 10.0263 31.9511
H 8.2683 10.6969 32.4387
H 8.47904 9.20015 32.3539
O 13.8076 9.85738 16.1534
H 14.0506 10.1469 17.0328
H 13.3597 9.0227 16.2908
O 21.8786 23.9837 9.41623
H 21.3422 23.1989 9.30369
H 22.4932 23.9614 8.6828
O 28.6429 12.1395 28.3531
H 27.818 12.4359 27.9685
H 29.1599 12.9384 28.4571
O 28.3448 27.3545 1.52082
H 28.9265 27.257 2.27472
H 28.532 28.2311 1.18499
O 18.6728 11.2195 24.7121
H 18.5178 12.1435 24.908
H 19.255 10.9205 25.4105
O 5.62515 1.84861 15.6505
H 5.82905 1.7527 16.5808
H 6.11858 1.14845 15.2232
O 2.16228 3.84161 3.30624
H 1.77293 3.17159 2.74437
H 3.07206 3.56463 3.41495
O 21.7414 9.1469 6.96274
H 21.1248 8.70093 7.5434
H 21.649 8.69663 6.12314
O 18.4629 22.015 31.1375
H 17.5707 21.6877 31.2517
H 18.4839 22.3464 30.2398
O 24.5748 3.75649 27.5408
H 25.2519 4.31829 27.9179
H 24.1422 3.36095 28.2976
O 10.2588 27.2295 5.03083
H 10.1916 27.5261 5.93843
H 10.0384 26.2987 5.06557
O 15.3844 16.8134 10.5078
H 15.3291 16.4197 9.63703
H 14.6432 17.4179 10.5454
O 8.79551 8.21533 10.9883
H 8.9104 9.16452 10.9428
H 9.60165 7.85791 10.6159
O 30.8323 22.8604 24.7738
H 30.3748 22.7886 23.9361
H 30.2683 23.4195 25.3081
O 30.417 6.65043 16.0566
H 30.647 6.88939 16.9545
H 30.5218 7.46091 15.5582
O 10.7639 28.533 18.6193
H 11.5262 29.101 18.7311
H 10.9526 28.0315 17.8261
O 3.35229 27.4619 4.18731
H 4.016 26.7886 4.33709
H 3.45001 27.6939 3.26383
O 12.2871 11.0648 13.4816
H 12.0936 11.5355 12.6709
H 11.649 11.3997 14.1116
O 22.4505 21.9913 30.3013
H 21.9837 22.6035 30.8701
H 21.7814 21.3675 30.0196
O 10.3305 13.4455 5.20381
H 9.64151 13.193 5.81844
H 11.0678 13.6972 5.75994
O 29.9785 8.38798 10.3945
H 29.608 9.24792 10.5932
H 30.4875 8.16035 11.1725
O 21.5664 9.68727 14.3911
H 20.771 9.19252 14.5881
H 21.3505 10.5907 14.6222
O 16.3296 30.5215 21.7548
H 15.751 30.0562 21.1507
H 15.7433 31.0756 22.27
O 3.02464 4.60779 11.5452
H 3.02222 3.95383 10.8462
H 3.9034 4.98621 11.5167
O 18.9072 16.5414 32.7252
H 18.8829 17.4971 32.6788
H 18.956 16.258 31.8122
O 22.9517 7.50258 17.2028
H 22.0925 7.78705 17.5145
H 23.547 7.70112 17.9256
O 28.0699 9.45679 30.7511
H 28.4177 8.56539 30.7777
H 27.4644 9.50041 31.4911
O 28.3073 27.8111 23.6239
H 28.572 28.7256 23.5251
H 28.191 27.6954 24.5669
O 2.51918 8.16012 22.8703
H 1.82774 8.55158 23.404
H 3.33244 8.49644 23.2467
O 10.9792 3.96164 14.1714
H 11.2567 3.4207 14.9107
H 10.3711 3.40674 13.6829
O 7.71261 27.8413 19.2672
H 6.92737 28.1459 19.722
H 7.82393 26.9369 19.56
O 17.4155 10.0769 16.5259
H 17.7587 9.36914 15.9805
H 18.1223 10.2695 17.1419
O 27.9356 19.96 23.1412
H 27.2181 20.3964 23.6006
H 27.7983 20.1782 22.2194
O 4.07706 29.9847 18.1746
H 3.90135 30.9189 18.2871
H 4.23413 29.8814 17.2361
O 4.95075 6.07989 22.588
H 5.01447 5.85461 23.5161
H 5.49016 5.42519 22.1446
O 6.1419 32.4852 11.6615
H 6.44091 32.1824 12.5189
H 5.25046 32.7982 11.815
O 14.1495 28.0962 7.58309
H 14.4847 27.2886 7.97246
H 14.4427 28.0633 6.6725
O 8.46529 5.61137 30.971
H 8.12957 6.21927 30.3123
H 8.40019 6.09189 31.7963
O 16.2805 9.06718 31.4086
H 16.1502 8.12369 31.5039
H 16.7912 9.31791 32.1783
O 32.8772 25.995 23.9621
H 32.2375 25.7155 24.617
H 1.23174 26.4072 24.4699
O 31.92 18.8412 13.3965
H 32.5839 19.4973 13.1842
H 31.7798 18.3677 12.5765
O 14.9203 11.5819 32.2372
H 15.1222 10.7942 31.7322
H 14.7659 11.2637 33.1266
O 25.7491 23.118 20.447
H 25.3937 23.0366 21.332
H 25.7145 24.0561 20.2599
O 3.14881 27.8337 26.4127
H 2.28964 28.2012 26.2053
H 3.00999 27.3404 27.2212
O 21.0777 17.4045 18.2376
H 20.765 17.2372 17.3485
H 21.9194 16.9512 18.2853
O 26.176 12.8243 27.2629
H 25.5732 12.1508 27.5781
H 25.6857 13.6423 27.3444
O 5.57228 11.4606 31.5639
H 6.26327 11.8392 32.1075
H 4.87709 12.1186 31.5668
O 31.1541 14.1586 10.5861
H 30.2275 14.0532 10.37
H 31.4521 13.275 10.8023
O 16.2705 4.56077 14.2477
H 16.744 4.08912 13.5625
H 15.3464 4.4213 14.0405
O 23.4436 8.06383 8.91355
H 22.788 8.22224 8.23431
H 23.4311 8.85726 9.44885
O 24.9788 23.0446 23.0219
H 24.2306 23.4591 23.4514
H 25.3363 22.4512 23.6824
O 18.7286 15.0296 10.2074
H 18.5551 15.4198 9.35069
H 19.6022 14.6473 10.1245
O 18.4209 22.7386 25.9495
H 19.0703 22.0484 25.8146
H 17.7045 22.5133 25.356
O 21.4423 25.5435 22.7854
H 22.0638 24.8473 22.998
H 21.3249 25.4792 21.8376
O 17.2741 5.26195 22.0387
H 17.2854 5.92617 22.7278
H 18.1643 4.91028 22.0296
O 2.25045 16.7741 6.60145
H 1.54514 16.1878 6.32751
H 2.56962 17.1626 5.78692
O 2.9976 20.9148 25.0294
H 3.45959 20.8874 25.8673
H 2.19826 21.4087 25.2121
O 27.5606 9.04225 23.4977
H 28.4523 9.09317 23.1536
H 27.1167 8.4189 22.9228
O 26.2793 6.7539 26.1846
H 25.5206 6.40736 25.7151
H 26.954 6.0832 26.0786
O 7.59151 14.622 33.1285
H 6.74057 15.0523 33.212
H 7.45059 13.7418 1.13291
O 2.18771 33.0626 7.84442
H 1.50076 32.4143 7.99942
H 1.79455 1.34363 7.23569
O 7.1598 22.8791 9.86884
H 6.50695 23.2757 9.29208
H 7.9958 23.2306 9.56259
O 18.0647 28.4936 22.3567
H 17.3905 29.1375 22.1395
H 17.7174 27.6633 22.0307
O 17.6413 26.3751 4.18633
H 18.0885 26.7469 4.94655
H 18.1348 26.7018 3.43403
O 23.517 20.6785 26.25
H 24.4303 20.9001 26.0682
H 23.4874 19.723 26.1998
O 22.9506 25.7369 28.4751
H 23.0637 26.6725 28.6422
H 22.7003 25.3701 29.323
O 3.13876 23.8625 26.0954
H 2.40936 23.2441 26.1379
H 2.96833 24.4837 26.8034
O 14.6219 3.15422 6.1702
H 14.9719 3.25868 5.28545
H 15.3792 3.27262 6.74346
O 6.00558 8.98279 19.466
H 6.69841 8.41032 19.1366
H 5.4605 9.16483 18.7005
O 2.31066 15.1927 1.80999
H 1.43428 15.0007 2.14368
H 2.17599 15.3946 33.2284
O 27.0609 3.28365 29.8072
H 27.0083 4.06865 29.262
H 26.3038 3.34485 30.3897
O 17.7771 25.8379 27.287
H 18.357 26.0853 28.0072
H 17.1022 25.2971 27.6972
O 5.71417 32.8527 7.92172
H 5.65991 1.44632 8.10511
H 6.62174 32.6216 8.11956
O 23.2315 6.13389 12.3498
H 22.9938 7.05752 12.4313
H 22.3968 5.68096 12.2298
O 14.0903 22.5411 19.8314
H 13.4309 23.1074 19.4305
H 14.5525 23.1096 20.4473
O 4.58417 13.4774 11.5911
H 4.46219 13.7041 12.513
H 5.362 13.9674 11.3244
O 17.5875 10.724 8.29666
H 17.9163 10.3911 9.13173
H 17.8512 11.6441 8.28449
O 2.55191 2.29218 21.0409
H 3.08676 1.54318 21.3039
H 2.62099 2.31308 20.0865
O 31.8703 4.46801 30.7918
H 32.6787 4.06634 30.4735
H 31.3693 4.65975 29.9991
O 19.4121 15.5842 5.25135
H 18.7464 14.9418 5.0057
H 19.0492 16.0239 6.02023
O 6.23882 32.1078 25.0072
H 5.44513 31.6348 25.2573
H 6.40973 31.8307 24.1071
O 23.9161 11.2423 6.3998
H 23.3523 12.0105 6.30994
H 23.3133 10.5227 6.58723
O 20.1245 28.5773 28.7054
H 19.602 29.3643 28.5507
H 20.4876 28.699 29.5826
O 1.34513 32.4088 30.7504
H 1.63414 33.0688 31.3805
H 1.22717 31.6147 31.2717
O 31.889 22.2122 1.65709
H 32.1417 21.4701 1.10792
H 31.1716 22.63 1.18067
O 9.17514 28.4005 10.9832
H 8.31142 27.9882 10.996
H 9.09422 29.1073 10.3428
O 28.3302 27.1207 5.96568
H 28.9438 27.7058 6.40994
H 28.0046 26.5445 6.65718
O 15.8844 20.0384 19.507
H 16.4957 20.3752 20.1621
H 16.3619 19.3303 19.0748
O 31.1596 21.8948 6.10867
H 30.5225 22.0549 6.80489
H 32.0104 22.0265 6.52696
O 9.58781 16.3443 25.5048
H 10.3476 16.887 25.2943
H 8.86517 16.9661 25.5908
O 21.6906 17.2884 10.9188
H 21.6132 16.5393 11.5096
H 21.8663 18.0318 11.4957
O 27.9676 27.4786 10.2236
H 27.6136 27.2399 9.36695
H 28.0953 26.6425 10.6719
O 18.2748 16.3229 7.7381
H 17.4788 15.7938 7.6858
H 17.9817 17.1631 8.09063
O 6.71286 11.9302 25.6587
H 6.77904 10.9901 25.4911
H 7.24353 12.0721 26.4426
O 2.96124 17.3546 17.2415
H 2.82632 17.0032 16.3614
H 2.86305 16.5981 17.8196
O 19.6428 2.90978 28.6365
H 20.465 2.43225 28.7466
H 19.9084 3.8227 28.5259
O 27.6596 6.88299 9.44091
H 27.9926 6.80593 8.5468
H 28.4001 7.22139 9.94438
O 14.1748 33.1293 27.0811
H 13.6453 32.362 26.8639
H 13.7515 1.50764 26.6177
O 33.1276 21.989 22.5029
H 32.7339 22.8575 22.4202
H 32.5686 21.5309 23.1305
O 11.1378 14.0782 26.6157
H 11.0268 13.1432 26.4432
H 10.2502 14.4351 26.5841
O 18.8626 11.5019 4.7498
H 19.2548 11.9069 5.5233
H 18.2962 12.1814 4.38419
O 3.269 11.8864 7.15548
H 2.4811 11.8327 7.69638
H 3.33086 11.0283 6.7358
O 31.7481 28.4782 21.2076
H 30.9816 28.5916 20.6457
H 31.4727 28.8149 22.0602
O 26.9661 17.3713 2.5998
H 27.2063 17.7597 3.44104
H 26.6884 18.1138 2.06328
O 8.33574 25.1249 20.3033
H 9.12552 24.6845 20.6172
H 7.71436 24.4154 20.1396
O 24.6841 14.9626 27.7035
H 24.6794 15.6302 27.0176
H 24.9732 15.4274 28.4888
O 2.77791 15.2017 19.0723
H 3.64261 15.0943 19.4685
H 2.23184 15.5479 19.7781
O 10.5896 13.6928 32.4775
H 10.4894 13.0371 31.7875
H 9.69362 13.945 32.7009
O 14.6542 3.54582 10.7726
H 14.4064 3.57899 11.6966
H 14.3882 4.39592 10.4221
O 23.0956 27.4333 23.8167
H 22.5 26.7998 23.4165
H 23.2811 28.0621 23.1192
O 3.48562 22.8006 16.426
H 3.2497 23.0327 17.3241
H 2.96548 23.3911 15.881
O 14.7857 14.4531 26.706
H 14.0836 14.2456 27.3226
H 14.6458 15.3737 26.484
O 21.1945 15.7076 25.8649
H 22.0056 16.2053 25.9684
H 21.4788 14.7956 25.8035
O 0.975234 16.6976 20.7878
H 32.6769 17.135 20.2294
H 32.7942 16.2217 21.431
O 13.6702 26.2532 29.1205
H 12.9761 26.6588 29.64
H 13.4028 26.3929 28.212
O 7.69537 18.0202 23.0976
H 7.70906 18.1393 24.0472
H 7.34224 17.1396 22.9712
O 15.3296 4.96451 20.1716
H 15.9527 5.02658 20.8955
H 15.3169 4.03463 19.9449
O 23.6174 13.7405 8.95236
H 24.1257 14.4176 8.50592
H 23.8384 13.8454 9.87776
O 18.6002 1.48595 26.3731
H 17.7395 1.72479 26.7172
H 19.2215 1.89677 26.9743
O 24.5371 3.85495 20.83
H 23.6579 4.23218 20.8607
H 24.4063 2.92584 21.0195
O 25.7111 15.58 4.72815
H 24.9119 15.6432 5.25109
H 25.852 14.6396 4.61794
O 31.5671 19.9261 23.4997
H 31.0008 19.8818 24.2702
H 32.3791 19.4999 23.7739
O 27.7466 29.381 13.4618
H 28.692 29.4074 13.3143
H 27.5386 30.236 13.8387
O 22.0445 22.5038 16.197
H 22.4985 22.4165 17.0352
H 21.1201 22.5845 16.4321
O 13.4204 8.04385 4.88254
H 12.713 7.71779 5.43886
H 14.2197 7.71132 5.29104
O 11.9533 12.4132 10.9496
H 12.8118 12.6093 10.5743
H 11.3702 12.3472 10.1934
O 15.578 33.0785 11.0652
H 16.5091 32.9043 11.2023
H 15.541 1.65677 10.8129
O 8.25859 12.3964 6.76876
H 7.81428 13.1204 7.20994
H 7.55116 11.8813 6.38084
O 12.9088 32.2832 21.2668
H 13.0072 31.7572 20.4732
H 13.4455 33.0598 21.1081
O 11.1322 27.8294 15.8427
H 11.9303 27.3732 15.5758
H 10.5397 27.7326 15.0972
O 20.0008 19.6328 19.5164
H 20.4264 18.8251 19.229
H 19.8228 19.4926 20.4463
O 26.9604 13.1518 4.52569
H 26.4666 12.3371 4.43199
H 27.6702 12.934 5.12986
O 32.3681 23.7472 17.6841
H 32.4456 24.7013 17.6792
H 31.4279 23.5832 17.7572
O 25.7609 28.0501 8.1615
H 25.7939 27.2194 7.68717
H 25.471 27.8123 9.04219
O 5.38037 28.5921 20.3298
H 4.8459 29.1926 19.8102
H 4.86779 27.7845 20.3658