3072
Atoms. Timestep: 0
O 2.62624 26.9193 19.6812
H 3.26976 27.4485 20.1523
H 3.08745 26.1055 19.4778
O 10.5424 13.4057 31.5098
H 11.0951 14.1806 31.4081
H 11.0772 12.7942 32.016
O 6.54112 7.01554 29.8742
H 7.40081 6.59623 29.8376
H 6.02443 6.45353 30.4517
O 10.4787 3.85819 3.35179
H 10.194 4.43964 4.05684
H 10.5536 4.42797 2.5863
O 30.373 5.01781 3.69177
H 30.9171 5.30925 4.42345
H 30.65 5.56241 2.95494
O 4.42114 6.44335 2.49244
H 4.84297 7.15469 2.01048
H 4.80079 6.48979 3.3699
O 30.6954 19.1412 11.9951
H 31.6362 19.2723 12.1127
H 30.622 18.2751 11.5942
O 16.117 24.5593 11.0851
H 15.3041 24.3791 10.6131
H 16.4864 23.695 11.2657
O 1.51426 31.7468 24.5857
H 2.41537 31.6376 24.8895
H 1.44658 1.18778 24.3642
O 9.12158 20.221 5.77019
H 8.348 20.1017 6.32116
H 8.7765 20.5489 4.93976
O 31.9716 13.3924 5.91436
H 32.058 12.8361 6.68856
H 31.0272 13.4956 5.7972
O 6.94559 7.24586 14.7451
H 7.57288 7.40842 14.0406
H 6.36783 6.56533 14.3997
O 29.408 2.65513 24.6609
H 29.5079 1.71359 24.5204
H 30.2979 3.0025 24.6009
O 21.622 26.1077 19.7433
H 21.2096 25.6955 20.5024
H 22.304 26.6671 20.115
O 5.7373 0.778044 19.1999
H 6.42292 31.9469 18.613
H 6.0059 1.66994 19.4204
O 1.42035 22.233 14.5403
H 1.21705 21.2976 14.5435
H 0.768351 22.6222 15.1231
O 29.0685 21.3306 17.8598
H 29.4731 21.2195 18.7202
H 29.5513 20.7333 17.2886
O 31.629 6.24664 1.63173
H 31.3774 5.44948 1.16538
H 30.9404 6.87659 1.41895
O 3.99543 31.5516 25.8259
H 4.45053 31.1534 25.0839
H 4.2927 31.0517 26.5862
O 19.1234 31.07 6.80193
H 19.1931 30.2429 6.32523
H 19.9836 31.188 7.20495
O 26.9259 13.0717 13.1556
H 26.0271 12.7923 12.9814
H 26.8752 13.5367 13.9907
O 17.8298 28.9028 27.8068
H 17.161 28.3476 27.406
H 18.6462 28.4167 27.691
O 4.75791 15.608 27.4608
H 5.68851 15.8274 27.4157
H 4.69402 14.9799 28.1804
O 25.1626 13.631 15.6094
H 25.1335 14.0363 16.4761
H 25.3102 14.3609 15.008
O 6.72324 19.9905 7.21601
H 5.90661 20.1315 6.73698
H 6.82387 20.7751 7.75499
O 11.6174 7.06362 7.99343
H 12.2716 6.75195 7.36798
H 11.5188 7.99455 7.79371
O 19.2109 2.15911 16.1789
H 18.8539 1.34766 16.5399
H 18.5715 2.43043 15.5202
O 20.4948 2.68877 24.9926
H 20.8558 2.38473 25.8253
H 21.0347 3.44364 24.7583
O 15.7625 4.32835 25.0523
H 16.6984 4.19249 25.2002
H 15.6522 5.279 25.0705
O 16.0648 19.9639 3.25026
H 16.4257 19.1321 3.55678
H 15.1948 20.0087 3.64689
O 23.6712 17.1641 31.6606
H 23.5391 16.2245 31.7867
H 23.0687 17.3986 30.9548
O 10.6533 5.69314 1.09639
H 11.4032 5.60188 31.9964
H 9.88966 5.63193 32.0102
O 20.8768 7.8786 29.7182
H 21.8083 7.72417 29.8751
H 20.5252 8.11671 30.5761
O 8.03696 7.72587 1.91878
H 7.79704 6.80509 2.02281
H 7.23351 8.15078 1.61855
O 8.14727 22.1502 22.4901
H 8.45439 21.244 22.516
H 8.79046 22.6364 23.006
O 4.43977 10.2804 10.1908
H 4.0643 9.47314 9.83921
H 3.92444 10.4624 10.9766
O 7.55926 9.74483 15.8904
H 7.03009 9.00889 15.5828
H 7.98542 10.0802 15.1016
O 21.1536 10.8255 28.669
H 20.9838 9.8836 28.6854
H 21.3953 11.0099 27.7614
O 27.202 32.1868 17.3775
H 26.7687 1.06465 18.1487
H 28.1002 1.02583 17.4293
O 18.2298 26.3148 30.8158
H 17.5049 26.3204 30.1907
H 18.3794 25.3877 31.0014
O 30.6218 23.2088 15.9565
H 29.707 22.9894 15.7797
H 30.6137 23.5785 16.8394
O 8.58767 4.04959 11.3086
H 9.28169 4.63123 11.6188
H 8.58396 3.32527 11.9343
O 9.49508 17.9288 20.1479
H 9.34741 17.1879 20.7357
H 8.97912 17.7232 19.3684
O 29.9709 2.68637 10.7812
H 30.2349 1.89617 11.2526
H 30.6947 2.8598 10.1793
O 12.8918 20.4528 22.3622
H 12.2446 20.386 23.0643
H 13.3011 21.308 22.4937
O 9.56417 24.8033 11.8832
H 9.79465 24.223 12.6087
H 10.1391 25.5611 11.9901
O 22.4994 23.9929 18.2725
H 22.5791 23.3352 18.9634
H 22.2517 24.7951 18.7324
O 7.643 4.89385 2.35774
H 7.67474 4.10868 1.81119
H 7.51992 4.5623 3.24721
O 23.204 13.5205 5.94568
H 23.308 13.5531 6.89665
H 24.0985 13.5411 5.60558
O 30.4796 12.524 2.46177
H 29.6109 12.1273 2.39714
H 30.3284 13.3633 2.89652
O 3.63733 12.5653 4.1091
H 2.8266 12.0824 3.94868
H 3.44106 13.4614 3.83558
O 11.2552 25.2451 14.7199
H 11.6457 25.0631 15.5746
H 11.5458 24.5218 14.1644
O 25.9082 7.04882 32.0054
H 25.4703 6.76602 1.3205
H 26.8088 6.73923 32.1014
O 3.30582 16.3097 13.3726
H 3.6461 15.432 13.1989
H 2.49453 16.1607 13.8583
O 27.4488 26.8297 27.2062
H 27.9484 26.1244 26.7949
H 27.4835 27.5482 26.5747
O 14.5216 27.0844 23.4158
H 13.7607 26.84 23.9426
H 14.7356 26.2931 22.9216
O 9.2995 15.6768 5.03928
H 9.7132 16.2751 5.66149
H 8.42008 15.5361 5.39008
O 19.1724 4.57038 1.98172
H 19.7612 5.01304 1.37048
H 18.9259 5.24825 2.61097
O 14.0665 5.86989 14.1527
H 14.3363 5.63026 15.0393
H 13.2829 6.4053 14.2768
O 10.5942 7.74721 5.36167
H 11.1443 7.524 4.61081
H 10.6158 6.96677 5.91544
O 1.47203 1.73157 20.5922
H 0.748603 1.34968 21.0892
H 1.98584 0.978865 20.2995
O 25.8065 15.6489 3.25499
H 25.1156 15.1654 2.80204
H 25.9306 15.1758 4.07781
O 2.97265 2.96463 3.92152
H 2.81332 2.73536 3.00595
H 3.73256 2.43913 4.17177
O 31.525 24.0426 3.80806
H 31.7419 23.7928 2.90984
H 32.0694 24.8105 3.98175
O 16.0041 19.1047 26.4804
H 15.4862 19.8704 26.2321
H 15.3601 18.4725 26.7995
O 25.7257 31.6849 13.3136
H 24.9359 32.1586 13.053
H 25.4975 31.2798 14.1503
O 18.9085 29.1689 2.15193
H 19.8432 29.2542 2.33973
H 18.7406 28.2274 2.19197
O 29.8351 6.75247 25.2884
H 30.1138 6.97011 26.1779
H 29.285 5.97608 25.3925
O 18.9749 1.03308 23.0949
H 19.1402 0.956638 24.0347
H 19.1121 31.6368 22.7544
O 10.5955 12.035 10.8439
H 9.72477 12.3676 10.626
H 11.1022 12.1438 10.0392
O 31.8779 4.63067 27.2616
H 31.113 4.89001 27.7754
H 32.0531 3.72891 27.5306
O 25.1544 28.6929 31.0842
H 24.5195 28.5654 31.7891
H 24.9441 28.0115 30.4457
O 24.6002 18.6381 22.7578
H 23.69 18.3932 22.9243
H 24.6125 18.906 21.839
O 13.2341 26.3712 25.6425
H 13.1108 25.6179 26.2201
H 13.2709 27.1232 26.2335
O 17.6879 28.1196 21.6135
H 16.7894 28.4068 21.7763
H 17.5961 27.3548 21.0453
O 20.9389 21.249 18.4583
H 21.4395 21.2327 19.274
H 20.3477 21.9957 18.5544
O 11.1124 1.31693 3.89787
H 10.9718 2.26259 3.85115
H 11.6672 1.19459 4.66827
O 15.5925 6.82719 28.5722
H 16.1181 6.03782 28.7022
H 15.0114 6.8564 29.3323
O 17.6452 10.5777 19.4066
H 17.2143 9.80601 19.7742
H 18.4338 10.688 19.9377
O 8.41024 18.046 3.84104
H 7.56192 17.6329 4.002
H 8.56378 18.5882 4.61475
O 8.76629 7.08155 12.5257
H 9.51509 6.50893 12.3594
H 8.84189 7.77259 11.8677
O 3.14545 15.2714 3.59954
H 2.29155 15.5043 3.23501
H 2.98802 15.1785 4.53911
O 12.3367 22.3778 25.4231
H 12.0955 21.6519 25.9985
H 12.4198 23.1306 26.0084
O 30.2659 12.3804 16.2847
H 29.9533 11.9365 15.4964
H 29.9902 13.2902 16.173
O 5.5231 5.00915 17.1536
H 5.74692 4.68799 18.0271
H 5.59344 4.23907 16.5895
O 29.1788 7.67002 17.513
H 29.1864 7.88585 16.5805
H 28.2681 7.79387 17.7805
O 8.62535 11.4229 13.8243
H 8.17794 12.269 13.8081
H 9.43536 11.589 14.3065
O 14.1367 9.74991 24.8474
H 14.4107 8.84362 24.9881
H 13.4063 9.87659 25.4529
O 3.6939 2.86397 26.2663
H 2.84371 2.58494 26.6062
H 4.07043 2.07214 25.8823
O 30.9013 29.6435 26.2484
H 29.9854 29.4046 26.1059
H 31.3635 28.8065 26.2928
O 5.91682 5.69961 10.9816
H 6.6348 5.10526 10.7636
H 6.33442 6.55562 11.0769
O 30.7066 16.2849 11.5201
H 31.2705 16.3552 10.7498
H 31.311 16.1344 12.247
O 23.215 16.4003 14.0807
H 22.6512 16.0046 14.7453
H 22.9575 17.3221 14.0655
O 5.30154 1.78423 7.28025
H 6.17824 1.40941 7.36476
H 5.07134 1.65133 6.3607
O 4.43952 8.27797 12.9376
H 4.45876 8.58631 13.8436
H 5.27527 8.56406 12.569
O 10.9746 28.2109 20.3607
H 10.8229 28.8275 19.6444
H 11.5023 27.5144 19.9701
O 22.8432 11.6965 11.7078
H 22.6374 10.7631 11.6569
H 23.4849 11.839 11.012
O 28.2141 20.691 11.2219
H 27.8578 20.2949 10.4267
H 28.952 20.1296 11.4598
O 20.9667 27.0256 14.5227
H 20.5086 26.9461 13.686
H 21.8949 26.9796 14.2934
O 25.259 15.3064 17.8638
H 25.8147 16.0617 18.0562
H 24.3763 15.6698 17.7927
O 9.2893 27.8433 22.6272
H 9.99764 27.7658 21.9881
H 9.71238 28.1876 23.4138
O 24.2991 32.0868 2.16625
H 25.0972 31.562 2.2288
H 24.6015 1.50471 2.23374
O 15.5721 17.7614 17.735
H 14.6415 17.791 17.5126
H 15.9847 18.3701 17.1223
O 21.4781 14.0823 23.4929
H 22.2024 14.6686 23.2741
H 21.818 13.205 23.3166
O 1.97677 2.78713 13.6188
H 2.47371 2.29073 14.2691
H 2.64399 3.18909 13.0625
O 2.08669 19.2499 28.8423
H 1.94728 19.4235 27.9114
H 2.99261 18.9456 28.8967
O 23.5577 7.1357 4.78384
H 23.3377 8.00393 4.4462
H 22.7454 6.81888 5.17876
O 17.3176 12.377 8.84293
H 18.0536 12.616 9.4063
H 16.7178 11.9037 9.41957
O 20.9024 15.2952 2.47456
H 21.1825 16.1716 2.73878
H 19.9951 15.4085 2.19138
O 32.0355 9.05621 8.87392
H 1.40427 8.67137 8.68844
H 31.4666 8.72097 8.18093
O 3.16872 27.1503 13.3386
H 4.0339 27.2637 13.7321
H 3.32904 26.6274 12.5531
O 28.4632 14.1039 23.8049
H 28.5529 13.5595 24.5871
H 29.2034 13.8536 23.2521
O 10.0561 12.7743 6.13114
H 9.88246 13.7105 6.22925
H 9.5399 12.5131 5.36859
O 21.4671 7.71297 24.9705
H 21.9655 8.5121 25.1415
H 20.7641 7.98971 24.3828
O 24.7594 20.763 16.5763
H 24.8033 20.3905 17.4569
H 25.6059 21.1931 16.4551
O 13.0193 30.2885 7.24948
H 13.9265 30.0103 7.12418
H 12.5057 29.6774 6.72114
O 7.9053 17.4542 17.7614
H 8.03015 17.8782 16.9123
H 8.33191 16.6023 17.6692
O 22.6364 21.7832 11.4542
H 23.4085 22.1448 11.8895
H 22.1212 22.5499 11.2033
O 13.0653 31.6975 2.17142
H 12.2755 31.7893 2.70421
H 13.4844 1.06931 2.21337
O 26.8885 17.1668 20.9194
H 27.5334 16.5905 20.5093
H 26.7197 17.8432 20.2635
O 12.05 16.395 10.6823
H 12.5791 15.8205 11.2358
H 12.1482 17.2628 11.0741
O 31.4535 26.7324 20.1021
H 0.885522 26.8746 19.8785
H 31.2203 25.9197 19.6535
O 24.0973 28.7299 16.1703
H 24.4496 29.6197 16.152
H 24.8169 28.1936 16.503
O 16.1679 15.4657 16.2043
H 17.0663 15.1401 16.2605
H 16.1897 16.3093 16.6562
O 7.58187 11.7578 21.7797
H 7.31051 12.1369 22.6157
H 7.06444 12.226 21.1246
O 21.3244 20.2796 30.1882
H 21.7346 20.1151 29.3392
H 21.9429 20.8478 30.6475
O 26.6805 7.97681 18.1215
H 26.3024 7.20224 18.5378
H 25.9257 8.46509 17.7927
O 29.8031 5.11001 11.865
H 29.6712 5.0147 12.8082
H 29.7638 4.21586 11.5256
O 28.0177 26.423 21.3552
H 27.3056 25.8547 21.0616
H 27.6633 27.3092 21.282
O 27.0392 19.8696 8.86196
H 26.4694 20.3144 9.48942
H 27.1039 20.4764 8.12447
O 1.21314 26.7112 4.74795
H 1.40287 26.4768 5.6564
H 2.06537 26.6933 4.31249
O 25.4834 19.1331 0.743656
H 25.6044 19.0708 1.69113
H 24.8211 18.472 32.03
O 10.1374 4.90015 5.89883
H 9.30549 4.43284 5.97501
H 10.7731 4.33056 6.33198
O 2.61723 23.1593 5.03956
H 3.13929 23.9403 5.22342
H 1.73437 23.493 4.87992
O 16.5268 17.3807 24.2313
H 16.6182 18.1308 24.819
H 15.8644 17.6528 23.5962
O 1.74928 11.9438 16.6722
H 1.05252 12.4254 16.2263
H 1.75226 12.2954 17.5625
O 26.1495 29.6412 2.8027
H 26.8434 29.3899 2.19322
H 25.4103 29.0796 2.56946
O 9.14861 8.09435 27.0504
H 8.99034 7.19863 26.7523
H 9.52827 8.53646 26.291
O 30.1148 15.5861 15.534
H 29.3651 16.1779 15.4706
H 30.4238 15.6858 16.4344
O 15.0312 25.8501 2.34943
H 14.1432 26.2071 2.36406
H 14.925 24.9561 2.02433
O 13.1119 2.86199 16.8146
H 13.3357 2.39057 16.0121
H 13.551 2.37311 17.5105
O 12.0609 19.7314 9.12317
H 11.4147 19.7136 8.41727
H 12.6546 19.0077 8.92337
O 10.586 31.3693 12.8397
H 10.5218 30.5476 13.3263
H 9.85101 31.8941 13.1569
O 19.2987 26.4588 12.4498
H 20.1123 26.6555 11.9854
H 18.8219 27.2888 12.4606
O 6.46316 9.31317 5.91805
H 7.07842 9.34381 5.18543
H 6.98916 9.01714 6.66096
O 21.2523 24.061 1.23335
H 20.9325 24.3117 2.10001
H 20.4591 23.9117 0.718776
O 15.1094 1.72859 4.67078
H 15.9089 1.22384 4.81987
H 15.3879 2.64244 4.73
O 22.1765 10.9623 5.48108
H 22.5121 11.8584 5.5046
H 22.8026 10.4578 6.00055
O 31.6615 25.2258 26.6683
H 31.5134 25.6783 27.4987
H 30.7833 25.03 26.3417
O 13.5934 1.39488 14.6378
H 14.2254 0.787585 14.2532
H 13.6637 2.1853 14.1026
O 3.60608 17.143 31.0512
H 4.3602 17.1148 31.6401
H 3.30525 16.2356 31.003
O 7.06259 8.87958 21.8909
H 7.06393 9.83113 21.787
H 6.13866 8.65044 21.9913
O 11.4753 4.30305 23.713
H 10.5358 4.4198 23.5718
H 11.8471 4.26141 22.8319
O 20.8236 23.2843 6.51658
H 21.7508 23.0702 6.6197
H 20.8078 24.2347 6.40414
O 18.5907 16.4322 11.6836
H 17.7346 16.1142 11.397
H 18.9621 15.7048 12.1827
O 4.87385 19.4241 17.5121
H 5.53354 19.9965 17.9037
H 5.10631 19.3897 16.5842
O 6.49614 9.54505 27.4416
H 5.81478 9.1206 26.9202
H 7.2328 8.93436 27.4167
O 23.4628 6.77599 30.6996
H 22.8226 6.54325 31.3721
H 24.3042 6.50135 31.0639
O 16.0706 1.40287 31.512
H 16.4785 0.755319 32.087
H 15.9293 0.936943 30.6879
O 11.7759 2.18573 26.1397
H 12.0434 2.65804 26.9281
H 11.5668 2.87326 25.5074
O 18.5047 13.1707 4.43376
H 17.7059 13.3135 3.92595
H 18.4151 13.7505 5.19011
O 29.7845 31.453 24.2693
H 30.5749 31.2336 24.7627
H 29.1494 30.7834 24.5235
O 3.73371 12.1256 28.396
H 3.34722 12.1394 27.5204
H 3.05729 11.7372 28.9508
O 21.0866 31.2653 10.347
H 20.4198 30.7687 10.8212
H 21.5185 30.617 9.79077
O 24.7388 9.64534 16.4624
H 24.6462 10.265 17.1861
H 25.3841 10.049 15.8819
O 20.891 14.628 12.1539
H 21.5913 15.2272 11.8955
H 21.2243 14.1938 12.9392
O 27.0531 32.0672 26.786
H 26.3044 0.998211 27.2107
H 27.4064 31.4761 27.4508
O 22.3872 3.20005 2.18061
H 22.6098 3.0772 3.10344
H 22.7722 4.04593 1.95144
O 12.7783 5.76487 10.2533
H 13.4742 6.33138 10.5867
H 12.2658 6.32943 9.67466
O 23.2208 25.5755 31.8994
H 23.4339 26.2537 1.05261
H 22.4263 25.1644 0.752365
O 9.89971 24.0995 27.7977
H 9.71835 24.753 27.1222
H 9.65789 24.529 28.6182
O 7.90559 8.45044 18.5521
H 7.35108 8.68228 17.8071
H 8.64489 9.05609 18.4987
O 16.2358 21.1187 21.2309
H 16.7532 21.4123 21.9808
H 16.4568 20.1923 21.1348
O 11.7871 9.21581 13.0681
H 11.5898 9.92087 13.6847
H 10.9304 8.87333 12.8131
O 15.2281 0.836306 10.6867
H 14.3299 1.06597 10.4483
H 15.4798 1.49365 11.3354
O 3.1138 22.2145 2.5139
H 2.85719 21.2957 2.5918
H 2.96856 22.5791 3.38695
O 15.0655 29.834 1.86172
H 14.2967 30.3881 1.72736
H 15.4551 29.749 0.991538
O 18.9701 11.6432 1.50732
H 18.4863 12.0338 2.23512
H 18.8376 12.2493 0.778392
O 12.1331 30.775 26.5609
H 12.1198 31.6827 26.2575
H 11.7025 30.8013 27.4154
O 13.7712 13.9509 22.3539
H 13.3605 14.7291 21.9771
H 14.6394 14.2466 22.6278
O 14.4351 26.7651 6.81854
H 13.6327 27.2071 6.54116
H 14.91 26.5967 6.00467
O 26.6053 22.2558 18.7232
H 27.4966 21.9683 18.525
H 26.1859 21.4876 19.1106
O 10.7549 29.0615 24.8587
H 9.88406 29.4204 25.029
H 11.3525 29.6569 25.311
O 6.3023 19.3627 1.6201
H 5.83933 19.3429 2.45766
H 6.63324 18.4716 1.50774
O 7.92993 29.3163 27.9049
H 7.06481 29.7206 27.971
H 7.75944 28.3756 27.9516
O 15.8255 30.9947 26.7678
H 16.4126 30.5105 27.3485
H 15.5383 30.3479 26.1234
O 25.8086 1.5975 19.5968
H 25.5814 2.3912 20.0812
H 26.2117 1.02505 20.2495
O 18.0403 21.6953 23.5513
H 18.4371 21.4208 24.378
H 18.5834 22.4258 23.2553
O 13.3992 17.4639 8.53582
H 12.6828 17.1445 9.08438
H 13.3994 16.88 7.77734
O 17.184 7.07976 22.9915
H 17.9819 7.59047 23.1284
H 16.8378 7.39465 22.1565
O 18.3894 16.1759 1.6828
H 18.7707 16.8709 1.14627
H 18.2241 15.4613 1.06778
O 29.0173 9.92664 26.5568
H 28.5011 10.2361 27.3011
H 28.3665 9.64589 25.9135
O 15.035 23.6688 4.85268
H 15.843 23.2624 4.53942
H 15.28 24.5743 5.04341
O 14.0385 24.5104 30.2701
H 14.7871 25.0922 30.1384
H 13.4171 25.0305 30.7798
O 10.1166 12.7177 27.7757
H 9.36576 12.2798 27.3748
H 10.3479 13.4113 27.1579
O 14.5463 18.0087 22.4296
H 14.0565 18.828 22.3582
H 13.9167 17.3306 22.185
O 32.1345 4.17569 15.9215
H 0.862798 3.59843 16.6538
H 1.0359 3.75015 15.1575
O 9.697 3.19923 19.1851
H 10.0582 2.57084 19.8104
H 9.93518 2.848 18.3272
O 16.7491 3.21175 7.51717
H 15.9289 3.70508 7.50481
H 17.432 3.88013 7.46156
O 27.1097 11.1817 10.5003
H 27.6846 11.7287 9.96496
H 26.2257 11.4081 10.2114
O 5.53735 8.75151 1.02005
H 5.7243 9.68412 1.12732
H 5.95236 8.51749 31.6776
O 30.8125 4.11399 31.686
H 30.6517 4.48025 30.8164
H 31.1479 3.23349 31.5172
O 1.75633 28.8836 23.6929
H 2.00098 28.6895 24.5977
H 1.76133 29.8395 23.6427
O 4.66185 18.6617 29.1427
H 5.60618 18.6365 29.2971
H 4.28207 18.2278 29.9067
O 23.0134 3.04986 13.5125
H 23.0549 2.49174 12.736
H 23.8935 3.00671 13.8863
O 27.0224 11.0944 15.7104
H 27.6058 11.0732 16.469
H 26.3826 11.7752 15.9187
O 26.8676 11.552 27.9923
H 27.1759 11.7378 28.8793
H 26.1583 10.9205 28.1122
O 12.0808 20.5551 29.3012
H 11.4138 21.1343 29.67
H 12.8466 21.1167 29.1815
O 24.9663 3.53061 21.2817
H 24.1809 3.01911 21.0874
H 24.7603 4.41313 20.9736
O 30.1019 7.70586 27.8284
H 29.6919 8.44027 27.3714
H 30.9877 8.01029 28.0256
O 5.91359 11.7806 16.4042
H 6.36212 12.5961 16.6279
H 6.61126 11.1266 16.3626
O 25.4162 22.3989 4.80422
H 24.7665 22.731 4.18471
H 25.9117 23.1734 5.07046
O 6.31886 22.3236 12.743
H 6.54442 23.1589 12.3334
H 6.56532 22.4325 13.6615
O 8.62431 5.47304 30.0326
H 8.53796 4.63437 30.4859
H 9.47842 5.42682 29.603
O 19.723 1.8667 9.11589
H 18.8163 1.6897 8.86552
H 19.9746 1.11554 9.65319
O 19.8498 15.5609 26.7288
H 20.7446 15.2213 26.7394
H 19.9541 16.5097 26.6568
O 28.2137 6.75152 4.05732
H 27.996 6.80925 4.98765
H 28.8681 6.05478 4.00678
O 20.1618 29.255 16.0194
H 19.2399 29.5114 16.0408
H 20.1662 28.4128 15.5644
O 27.4052 21.3871 6.61888
H 27.8643 22.1972 6.84085
H 26.5516 21.6758 6.29603
O 10.3499 23.4333 23.8911
H 10.8039 23.9758 23.2462
H 11.0516 23.0321 24.4038
O 13.7986 17.8137 27.4398
H 13.5683 17.3602 28.2507
H 13.1089 18.4676 27.3263
O 14.7447 21.4713 25.8381
H 13.879 21.8048 25.6027
H 15.268 22.2561 26.0011
O 31.9609 3.00253 18.4045
H 31.5566 3.60575 19.0281
H 1.02857 2.43812 18.9423
O 30.624 8.0241 6.64861
H 31.0826 7.35383 6.14199
H 30.4937 8.74408 6.03146
O 14.491 14.0531 17.9675
H 14.9974 13.9618 18.7746
H 15.0063 14.6522 17.4273
O 4.86234 1.14061 4.71161
H 5.51033 32.0584 4.29753
H 4.14744 32.0408 4.95639
O 4.53377 13.7699 12.7463
H 4.35236 13.1835 13.4808
H 5.48842 13.8352 12.7215
O 28.1927 23.0208 28.2411
H 27.8997 23.6129 28.9337
H 28.2709 23.5777 27.4665
O 27.0246 28.7739 21.4163
H 26.5535 28.396 22.159
H 26.9833 29.7191 21.5617
O 29.3055 27.0284 2.0379
H 29.9955 27.6603 2.24039
H 28.7659 27.4653 1.37894
O 2.65666 29.3169 12.0037
H 3.34869 29.9432 12.2162
H 2.87453 28.5364 12.5132
O 28.0038 15.5917 1.79885
H 27.8129 15.1294 0.98267
H 27.1799 15.5692 2.28564
O 8.00015 29.6658 25.1699
H 7.91888 29.6189 26.1225
H 7.35573 29.0381 24.8429
O 2.39278 14.3772 31.6313
H 2.53809 13.609 32.1835
H 1.4687 14.3259 31.387
O 28.3809 4.56884 8.1083
H 27.7537 3.85596 7.98702
H 28.2292 5.15117 7.36392
O 29.3374 18.4549 26.8539
H 29.979 18.2141 27.5222
H 29.4919 17.8371 26.1393
O 13.0623 5.21442 31.2588
H 13.9811 5.47918 31.3018
H 13.0472 4.50304 30.6185
O 9.84781 20.1983 18.3598
H 10.5242 20.2545 17.6849
H 9.76518 19.2617 18.5393
O 2.33442 12.2162 26.1188
H 1.65584 12.879 25.9904
H 1.91095 11.3906 25.8838
O 26.0952 30.2921 10.8901
H 25.856 31.1321 10.4982
H 26.3635 30.5114 11.7824
O 8.59913 9.18593 4.27727
H 8.33192 8.78256 3.45137
H 9.34445 8.66167 4.57032
O 32.1904 3.37181 24.6016
H 0.74107 3.8966 25.4012
H 1.19298 3.8812 23.9564
O 24.0907 14.72 23.3286
H 24.1047 15.2222 22.5139
H 24.4035 13.8502 23.0798
O 7.33829 18.9732 29.7248
H 7.19259 18.2769 30.3652
H 7.88883 18.5704 29.0534
O 7.8092 30.5695 17.2447
H 7.29294 29.7646 17.203
H 8.62594 30.309 17.6705
O 2.54086 5.9787 16.8293
H 2.07359 5.25203 16.4172
H 3.43428 5.65501 16.9444
O 23.648 15.6415 20.5249
H 23.4217 15.0823 19.7816
H 23.4439 16.5285 20.2287
O 27.4735 18.8163 5.23936
H 28.2414 18.3944 4.85389
H 27.7401 19.7262 5.37062
O 17.573 11.8102 23.2923
H 16.7857 11.4172 22.9155
H 18.0242 12.2058 22.5466
O 14.6845 21.3271 28.6062
H 14.5582 21.3481 27.6576
H 15.4476 20.7636 28.7343
O 22.9248 5.49569 8.75504
H 23.0471 6.28767 8.23153
H 23.6618 5.49557 9.36579
O 19.0848 17.5339 22.6083
H 18.3331 17.7717 23.1511
H 18.7519 17.5632 21.7113
O 3.43186 14.8988 17.3227
H 3.74646 14.0237 17.5497
H 4.21192 15.3629 17.0188
O 5.64893 2.83995 15.3532
H 4.90864 2.23382 15.3247
H 6.36872 2.32286 15.7148
O 12.2476 18.4752 4.80763
H 12.81 19.2235 5.00733
H 11.5824 18.4845 5.49589
O 8.96036 28.7463 6.71882
H 8.75713 28.1154 6.02823
H 8.94176 29.5968 6.27999
O 28.9835 8.52215 20.4361
H 28.5563 7.67314 20.3226
H 29.4253 8.45716 21.2828
O 24.2114 3.93813 26.1103
H 24.546 3.52699 25.3132
H 24.6165 4.8053 26.1212
O 22.2927 21.7337 16.0422
H 21.7331 21.1891 16.5957
H 23.1848 21.4916 16.2909
O 21.328 5.72029 5.8768
H 21.3028 4.84228 6.25717
H 20.7554 5.6669 5.11166
O 25.6862 7.36321 29.0289
H 26.3283 7.83153 29.5624
H 24.917 7.28453 29.5932
O 8.17059 11.3884 26.3918
H 7.62927 10.6173 26.5608
H 7.64002 11.9309 25.8083
O 5.97851 30.6293 9.47416
H 6.02525 29.8744 8.88754
H 6.89184 30.8725 9.62558
O 20.0687 15.469 8.13977
H 20.3882 15.1621 7.29127
H 20.183 14.7198 8.7245
O 16.1173 7.55306 5.71743
H 15.166 7.4665 5.65735
H 16.2575 8.44422 6.03745
O 18.1856 14.643 19.0768
H 18.9831 14.2468 19.4278
H 18.4129 14.885 18.179
O 15.8233 22.0194 18.48
H 16.4979 22.6979 18.4499
H 15.7662 21.7788 19.4047
O 17.9964 29.777 30.7897
H 17.9737 29.1081 30.1054
H 18.4319 29.3506 31.5278
O 3.33272 9.18147 24.4502
H 2.74309 8.43246 24.3633
H 3.33478 9.37797 25.387
O 13.168 7.57291 21.3116
H 13.014 6.62862 21.3407
H 14.1134 7.65819 21.1887
O 10.0977 9.66964 25.0926
H 9.40811 10.2804 25.3527
H 10.1178 9.72323 24.1371
O 19.2932 18.2217 5.70856
H 19.2625 19.1586 5.51445
H 18.767 18.1237 6.50212
O 31.6509 26.6525 29.0834
H 31.5222 26.227 29.9311
H 0.992607 27.1216 29.1739
O 30.2927 4.42946 20.2266
H 30.8341 4.89984 20.8604
H 29.4713 4.92041 20.2015
O 16.4628 23.2019 1.32804
H 16.5721 22.7685 2.17448
H 15.599 22.9221 1.02494
O 28.9951 32.1393 31.3776
H 28.661 31.7179 30.5858
H 29.8881 0.912309 31.1521
O 20.5245 27.8599 27.606
H 20.7502 28.7451 27.3201
H 20.5026 27.9145 28.5614
O 19.5672 26.4199 17.7338
H 19.581 27.31 17.382
H 20.2183 26.429 18.4354
O 25.1066 18.3805 3.54757
H 25.126 17.4423 3.35885
H 25.7008 18.4883 4.29022
O 16.7447 17.1093 29.9204
H 16.2319 16.3034 29.8591
H 17.6489 16.8298 29.7769
O 28.4293 27.2064 10.885
H 27.6487 27.3193 11.4273
H 28.1009 26.8357 10.0659
O 3.44565 4.66526 23.9653
H 3.41766 4.18398 23.1384
H 3.46222 3.98498 24.6385
O 5.34819 11.4074 1.87671
H 4.48634 11.5252 1.47725
H 5.17979 11.4202 2.81889
O 21.5828 12.711 1.91396
H 20.7285 12.3389 1.69507
H 21.396 13.6208 2.14583
O 10.1363 14.5705 20.1761
H 10.3155 13.635 20.2716
H 11.0011 14.9808 20.1673
O 15.9495 28.6955 25.3141
H 15.4977 28.0506 24.7697
H 16.8037 28.8058 24.8965
O 0.893735 16.0765 2.06266
H 1.31481 15.6135 1.33841
H 31.7082 15.472 2.37484
O 8.14136 21.5317 29.9203
H 9.04299 21.4509 30.2314
H 7.85199 20.6292 29.7862
O 30.7945 8.95776 31.602
H 31.5297 9.53906 31.4074
H 30.4816 9.24557 0.971859
O 2.2277 17.5753 16.7929
H 2.36696 16.6315 16.871
H 2.72691 17.9523 17.5174
O 21.7762 17.8876 23.2164
H 20.8578 17.6259 23.2827
H 21.7835 18.5698 22.545
O 2.75508 4.91771 31.7017
H 3.67122 4.92859 31.4246
H 2.26021 5.09393 30.9015
O 6.15975 25.4186 8.32075
H 5.35821 25.2233 7.8353
H 6.86646 25.1313 7.74261
O 27.7335 1.85863 7.88919
H 26.8999 1.50405 8.19855
H 28.3349 1.7328 8.62309
O 16.6195 28.8651 4.05208
H 16.0188 29.1204 3.3519
H 17.4912 28.9753 3.67246
O 16.1364 27.459 17.4473
H 16.3217 26.52 17.4433
H 15.2171 27.5234 17.1888
O 14.76 32.1822 29.0501
H 13.9691 1.1543 29.3316
H 14.5993 31.9689 28.1309
O 15.5576 7.31426 25.7614
H 15.8181 7.07887 26.6519
H 16.3808 7.51187 25.3148
O 10.7971 19.034 24.1128
H 11.3358 18.2431 24.0874
H 10.8897 19.3588 25.0084
O 2.72505 10.6051 12.2301
H 3.14901 10.9741 13.0049
H 2.72069 9.66069 12.3858
O 8.07624 10.7487 31.7178
H 7.78396 11.3013 0.95493
H 7.37954 10.8205 31.0653
O 21.6673 24.3147 11.4225
H 21.1928 24.1659 10.6047
H 22.2546 25.0456 11.2296
O 15.4375 24.3164 25.2401
H 14.926 25.1254 25.2274
H 15.663 24.1896 26.1616
O 25.6642 1.47754 9.56664
H 24.9945 2.01996 9.15002
H 25.8837 1.9443 10.373
O 19.0744 21.3594 5.70391
H 18.2775 21.3293 6.23335
H 19.6828 21.8922 6.21595
O 8.53294 16.1177 21.9285
H 7.5911 16.2212 21.7926
H 8.76988 15.3572 21.3976
O 19.7824 24.3731 22.0374
H 19.304 24.8981 22.679
H 20.631 24.207 22.448
O 1.18084 23.3776 20.4108
H 1.76707 23.8549 20.9979
H 0.873856 22.6345 20.9301
O 15.8849 14.4627 28.7464
H 16.5831 14.1905 28.1509
H 15.0788 14.3303 28.2476
O 2.48256 23.0381 17.9091
H 2.05664 23.2871 18.7294
H 2.29427 23.7619 17.3116
O 13.1085 26.5304 19.2628
H 12.7316 26.0131 18.551
H 13.2606 27.3935 18.8778
O 22.1804 0.734329 22.8625
H 21.4497 0.868429 23.4662
H 21.93 31.4536 22.3496
O 29.2077 5.17572 14.7199
H 29.0379 6.11054 14.6037
H 29.2131 5.0489 15.6687
O 9.10633 18.6641 10.8014
H 9.45363 19.491 10.4669
H 9.55316 18.5371 11.6383
O 19.3468 8.58254 8.54992
H 19.79 7.73542 8.50331
H 18.845 8.63596 7.73652
O 5.0465 22.1499 22.4642
H 5.68171 21.8398 21.8187
H 4.42651 21.4266 22.5574
O 7.75571 3.74407 5.34015
H 8.07816 2.89146 5.63223
H 6.99516 3.91605 5.89532
O 17.2123 10.0338 6.55776
H 18.0074 10.2151 6.05648
H 17.1836 10.7242 7.22016
O 31.1891 29.6084 1.56744
H 31.3529 29.9123 2.46023
H 30.2363 29.5388 1.5086
O 12.7524 30.2 10.5808
H 13.4151 30.3311 9.90266
H 13.22 29.7612 11.2915
O 31.6752 25.5562 13.8302
H 30.808 25.3333 13.4921
H 31.7091 25.145 14.694
O 8.54574 19.3806 22.4044
H 9.2539 19.3269 23.0462
H 8.96094 19.1623 21.5701
O 12.2321 12.8258 8.81382
H 12.1983 12.394 7.96022
H 11.5924 13.5349 8.74954
O 9.11978 28.8421 30.3951
H 9.75968 28.1337 30.3253
H 8.83041 28.9936 29.4954
O 6.69871 13.1364 24.4082
H 5.76733 13.3392 24.4955
H 7.1341 13.9881 24.4427
O 7.16396 26.3476 27.4382
H 7.14067 26.0746 28.3553
H 7.45311 25.5685 26.9631
O 24.6273 11.8867 9.70109
H 24.226 11.2314 9.13035
H 24.297 12.7237 9.37461
O 23.3929 0.753965 11.726
H 23.8496 0.922575 10.9018
H 22.629 31.7224 11.4751
O 0.718625 17.6835 24.4358
H 31.7805 17.4481 23.6115
H 31.7389 17.1777 25.1005
O 31.2542 13.5351 31.5192
H 30.9819 13.1919 0.882469
H 31.7345 12.8141 31.1122
O 29.7867 20.877 20.6714
H 29.3376 20.1591 21.1176
H 30.7065 20.6125 20.6568
O 17.0199 26.2844 19.7482
H 16.2802 25.793 20.1052
H 16.6191 26.9426 19.1804
O 17.9921 13.8763 27.3499
H 18.6762 14.4625 27.0265
H 18.4365 13.3176 27.9875
O 11.9723 20.3854 16.524
H 12.5065 21.1661 16.6703
H 11.5116 20.5602 15.7034
O 8.18725 1.40037 15.7822
H 8.31281 32.101 16.3122
H 9.01495 1.87516 15.8578
O 27.8993 4.94735 25.7689
H 27.922 4.05001 25.4365
H 27.6981 4.85334 26.7
O 1.8839 24.3492 9.42821
H 2.81643 24.4962 9.27004
H 1.75005 23.4223 9.22998
O 8.7885 5.66863 26.1445
H 9.51702 5.17597 26.5223
H 8.85256 5.50765 25.2031
O 29.273 1.89707 27.4746
H 28.3665 1.62309 27.3356
H 29.5559 2.23122 26.6234
O 9.43463 16.3378 13.2817
H 8.79713 15.625 13.2402
H 10.2688 15.9273 13.0542
O 3.63339 3.90867 11.5521
H 3.26534 4.77435 11.7291
H 4.58105 4.04123 11.5765
O 3.22189 8.35439 8.62746
H 3.33769 8.73424 7.75652
H 3.57045 7.46627 8.55023
O 11.7173 10.0083 7.65299
H 10.8451 10.4019 7.67303
H 12.0139 10.1278 6.75075
O 25.1847 2.23843 28.0045
H 24.8783 2.45441 28.8852
H 24.8181 2.9253 27.4476
O 16.2031 16.7301 9.80199
H 15.3843 16.2538 9.66408
H 15.9303 17.5852 10.1344
O 5.7232 24.324 2.35586
H 5.97107 23.8765 3.16485
H 6.5201 24.7753 2.07741
O 3.18381 28.4096 8.70706
H 2.47982 28.3278 9.35044
H 3.98741 28.3889 9.2267
O 27.8183 23.2334 10.7267
H 27.9676 22.2917 10.8108
H 27.8636 23.4005 9.78524
O 21.726 28.7873 9.25005
H 22.1259 28.4882 8.43346
H 20.7864 28.797 9.06758
O 12.6038 1.97959 10.4674
H 12.9648 2.69583 10.9899
H 12.031 2.41036 9.83293
O 6.41097 13.3739 4.72754
H 5.56297 13.0281 4.44906
H 6.41579 14.2785 4.41453
O 29.763 32.0437 6.15449
H 28.9277 0.988035 6.33298
H 30.4227 1.22643 6.33149
O 11.6861 28.3353 5.9264
H 11.5894 28.521 4.99237
H 10.7986 28.1362 6.22458
O 2.79657 31.0535 8.2242
H 2.54018 31.1658 7.30884
H 2.98157 30.1181 8.30859
O 6.75955 3.27345 19.8277
H 7.68364 3.14237 19.6153
H 6.71218 4.17458 20.147
O 12.6852 7.9341 15.7434
H 12.2246 7.16422 16.077
H 12.1703 8.2124 14.986
O 11.0994 8.83502 29.3374
H 10.7513 8.88466 30.2276
H 10.3431 8.60825 28.7963
O 30.5346 21.2638 31.8521
H 31.218 20.5936 31.8566
H 30.6276 21.6956 31.0029
O 31.8292 6.90465 14.8455
H 0.908477 6.62982 14.125
H 31.5001 6.08637 15.2175
O 8.68484 21.505 27.3017
H 8.49621 21.4904 28.24
H 8.91604 22.4155 27.1176
O 12.7881 11.9012 29.5717
H 11.8513 11.7381 29.462
H 12.9595 12.6807 29.0433
O 11.2748 5.50744 19.2315
H 11.9022 5.2344 19.9008
H 10.6791 4.76342 19.1432
O 24.2438 23.0879 13.2223
H 24.204 23.5136 14.0787
H 24.4087 23.8021 12.6067
O 6.08494 31.0341 30.9289
H 5.56754 30.745 30.1772
H 6.9248 31.2996 30.5543
O 12.8392 22.1287 7.94221
H 12.8098 21.7194 8.80698
H 11.9221 22.1926 7.67559
O 12.8852 24.988 16.9911
H 13.3897 24.1754 16.9537
H 13.3398 25.5805 16.3922
O 17.2046 24.4158 17.7513
H 17.2335 24.8823 18.5866
H 18.0222 23.9188 17.7256
O 12.6124 12.9641 24.6101
H 13.0212 13.3273 23.8244
H 13.3306 12.541 25.0806
O 5.75948 6.03523 22.9154
H 6.43136 5.50391 23.3426
H 4.93754 5.58521 23.1107
O 9.62039 0.829952 22.9424
H 9.52102 31.7335 23.694
H 8.99476 1.53634 23.1031
O 3.68541 26.1654 24.1465
H 4.47938 26.6964 24.0841
H 3.19789 26.5475 24.8762
O 4.25381 16.0381 23.101
H 3.96704 16.8622 23.4946
H 4.0659 15.3762 23.7664
O 14.3156 20.1043 1.07416
H 14.4557 19.2389 32.1778
H 14.9064 20.1313 1.82677
O 26.8217 24.3044 30.2421
H 26.3675 23.473 30.3785
H 27.4543 24.3528 30.9589
O 14.714 4.92566 16.5822
H 14.1419 4.15881 16.6118
H 15.5274 4.60337 16.194
O 22.1967 16.2812 17.1697
H 21.5981 16.6042 16.4962
H 22.2372 16.9881 17.8138
O 2.88435 23.9018 22.7596
H 2.92288 24.707 23.2758
H 3.75377 23.5132 22.856
O 28.6266 12.6181 8.27806
H 29.5145 12.2649 8.22265
H 28.6939 13.3398 8.90315
O 7.38476 2.58985 22.4534
H 7.06997 2.74121 21.5622
H 7.79065 3.41835 22.7085
O 3.71373 22.7893 11.9183
H 4.37951 22.4984 12.5415
H 3.84195 22.2304 11.1519
O 3.48769 3.47683 21.3603
H 3.39365 4.20695 20.7485
H 2.71702 2.93129 21.2032
O 15.712 7.76582 8.96629
H 15.0919 8.48177 8.82785
H 15.7441 7.31008 8.12515
O 5.95342 28.2371 20.2043
H 6.1739 28.0848 19.2853
H 6.34796 29.0849 20.4084
O 6.48947 28.3838 7.7176
H 7.35887 28.4481 7.3223
H 6.45033 27.4939 8.0679
O 23.8715 16.6581 8.84666
H 23.6231 17.3732 8.2608
H 23.2485 16.7141 9.57121
O 11.4675 13.2805 13.1645
H 11.3204 12.6681 13.8853
H 11.3039 12.7652 12.3746
O 24.6284 26.213 29.6554
H 25.447 25.7603 29.8582
H 24.0842 26.0844 30.4323
O 12.2621 11.2777 22.2767
H 12.1004 11.8279 23.0431
H 11.4692 11.3644 21.7475
O 26.8231 15.9821 6.65948
H 26.7446 16.2282 7.58116