LAMMPS (22 Aug 2018)
Reading data file ...
  orthogonal box = (0 0 0) to (32.8974 32.8974 32.8974)
  4 by 4 by 8 MPI processor grid
  reading atoms ...
  3072 atoms
  scanning bonds ...
  2 = max bonds/atom
  scanning angles ...
  1 = max angles/atom
  reading bonds ...
  2000 bonds
  reading angles ...
  1000 angles
Finding 1-2 1-3 1-4 neighbors ...
  special bond factors lj:   0          0          0         
  special bond factors coul: 0          0          0         
  2 = max # of 1-2 neighbors
  1 = max # of 1-3 neighbors
  1 = max # of 1-4 neighbors
  2 = max # of special neighbors
Setting atom values ...
  1000 settings made for charge
Setting atom values ...
  2000 settings made for charge
Setting atom values ...
  36 settings made for charge
Setting atom values ...
  36 settings made for charge
1000 atoms in group wat
36 atoms in group Na
36 atoms in group Cl
PPPM initialization ...
  extracting TIP4P info from pair style
  using 12-bit tables for long-range coulomb (../kspace.cpp:321)
  G vector (1/distance) = 0.308492
  grid = 30 30 30
  stencil order = 5
  estimated absolute RMS force accuracy = 0.00396779
  estimated relative force accuracy = 1.19489e-05
  using double precision FFTs
  3d grid and FFT values/proc = 2475 256
Neighbor list info ...
  update every 1 steps, delay 0 steps, check yes
  max neighbors/atom: 2000, page size: 100000
  master list distance cutoff = 12.3092
  ghost atom cutoff = 12.3092
  binsize = 6.1546, bins = 6 6 6
  1 neighbor lists, perpetual/occasional/extra = 1 0 0
  (1) pair lj/cut/tip4p/long, perpetual
      attributes: half, newton on
      pair build: half/bin/newton
      stencil: half/bin/3d/newton
      bin: standard
Setting up cg style minimization ...
  Unit style    : real
  Current step  : 0
Per MPI rank memory allocation (min/avg/max) = 8.191 | 8.258 | 8.457 Mbytes
Step Temp E_pair E_mol TotEng Press 
       0            0   -623.99644 3.2833764e-05   -623.99641    16855.974 
    1000            0   -18283.155    376.61467    -17906.54    -4511.467 
Loop time of 1.47502 on 128 procs for 1000 steps with 3072 atoms

98.8% CPU use with 128 MPI tasks x no OpenMP threads

Minimization stats:
  Stopping criterion = max iterations
  Energy initial, next-to-last, final = 
        -623.996407629     -17906.4343711     -17906.5404254
  Force two-norm initial, final = 1275.57 13.7842
  Force max component initial, final = 165.194 4.71147
  Final line search alpha, max atom move = 0.0018373 0.00865637
  Iterations, force evaluations = 1000 1800

MPI task timing breakdown:
Section |  min time  |  avg time  |  max time  |%varavg| %total
---------------------------------------------------------------
Pair    | 0.19214    | 0.36262    | 0.54593    |  12.1 | 24.58
Bond    | 0.0010683  | 0.0016862  | 0.0026267  |   0.6 |  0.11
Kspace  | 0.64974    | 0.84397    | 1.02       |   7.9 | 57.22
Neigh   | 0.007184   | 0.0073236  | 0.007489   |   0.1 |  0.50
Comm    | 0.15924    | 0.17997    | 0.20059    |   2.5 | 12.20
Output  | 9.4968e-05 | 9.6481e-05 | 9.9415e-05 |   0.0 |  0.01
Modify  | 0          | 0          | 0          |   0.0 |  0.00
Other   |            | 0.07935    |            |       |  5.38

Nlocal:    24 ave 33 max 10 min
Histogram: 2 1 5 11 12 20 40 20 13 4
Nghost:    2650.94 ave 2708 max 2617 min
Histogram: 28 31 8 13 5 9 2 15 12 5
Neighs:    8119.74 ave 12309 max 2860 min
Histogram: 3 2 6 17 13 36 23 17 8 3

Total # of neighbors = 1039327
Ave neighs/atom = 338.323
Ave special neighs/atom = 1.95312
Neighbor list builds = 22
Dangerous builds = 0
Finding SHAKE clusters ...
  0 = # of size 2 clusters
  0 = # of size 3 clusters
  0 = # of size 4 clusters
  1000 = # of frozen angles
PPPM initialization ...
  extracting TIP4P info from pair style
  using 12-bit tables for long-range coulomb (../kspace.cpp:321)
  G vector (1/distance) = 0.308492
  grid = 30 30 30
  stencil order = 5
  estimated absolute RMS force accuracy = 0.00396779
  estimated relative force accuracy = 1.19489e-05
  using double precision FFTs
  3d grid and FFT values/proc = 2475 256
Setting up Verlet run ...
  Unit style    : real
  Current step  : 0
  Time step     : 0.001
Per MPI rank memory allocation (min/avg/max) = 7.941 | 8.108 | 8.208 Mbytes
Step Temp E_pair E_mol TotEng Press Volume 
       0    441.89184   -18283.155            0   -15555.243   -879468.01    35602.788 
   10000    173.13857   -16673.395            0   -15604.566    1900.0975    35492.614 
Loop time of 8.75739 on 128 procs for 10000 steps with 3072 atoms

Performance: 0.099 ns/day, 243.261 hours/ns, 1141.892 timesteps/s
99.4% CPU use with 128 MPI tasks x no OpenMP threads

MPI task timing breakdown:
Section |  min time  |  avg time  |  max time  |%varavg| %total
---------------------------------------------------------------
Pair    | 0.65699    | 2.3729     | 3.5753     |  36.4 | 27.10
Bond    | 0.00096636 | 0.0012838  | 0.0021635  |   0.6 |  0.01
Kspace  | 2.9439     | 4.2126     | 5.9376     |  27.4 | 48.10
Neigh   | 0          | 0          | 0          |   0.0 |  0.00
Comm    | 0.82143    | 0.94406    | 1.0798     |   6.6 | 10.78
Output  | 8.4007e-05 | 8.5754e-05 | 8.7594e-05 |   0.0 |  0.00
Modify  | 0.90621    | 1.0946     | 1.1726     |   6.2 | 12.50
Other   |            | 0.1319     |            |       |  1.51

Nlocal:    24 ave 33 max 9 min
Histogram: 1 2 5 8 8 28 22 37 12 5
Nghost:    2650.75 ave 2707 max 2619 min
Histogram: 35 26 4 11 6 12 3 13 13 5
Neighs:    8120.13 ave 12363 max 2446 min
Histogram: 2 1 5 17 12 37 23 20 8 3

Total # of neighbors = 1039377
Ave neighs/atom = 338.339
Ave special neighs/atom = 1.95312
Neighbor list builds = 0
Dangerous builds = 0
PPPM initialization ...
  extracting TIP4P info from pair style
  using 12-bit tables for long-range coulomb (../kspace.cpp:321)
  G vector (1/distance) = 0.308567
  grid = 30 30 30
  stencil order = 5
  estimated absolute RMS force accuracy = 0.00395558
  estimated relative force accuracy = 1.19121e-05
  using double precision FFTs
  3d grid and FFT values/proc = 2475 256
Setting up Verlet run ...
  Unit style    : real
  Current step  : 10000
  Time step     : 0.01
Per MPI rank memory allocation (min/avg/max) = 7.941 | 8.108 | 8.208 Mbytes
Step Temp E_pair E_mol TotEng Press Volume 
   10000    173.13857   -16673.395            0   -15604.566    -8982.924    35492.614 
   20000    299.81232   -15418.734            0   -13567.915   -923.46363    36128.002 
Loop time of 9.1632 on 128 procs for 10000 steps with 3072 atoms

Performance: 0.943 ns/day, 25.453 hours/ns, 1091.322 timesteps/s
99.4% CPU use with 128 MPI tasks x no OpenMP threads

MPI task timing breakdown:
Section |  min time  |  avg time  |  max time  |%varavg| %total
---------------------------------------------------------------
Pair    | 0.698      | 2.3402     | 3.5267     |  35.3 | 25.54
Bond    | 0.00099092 | 0.0013059  | 0.0022262  |   0.6 |  0.01
Kspace  | 3.3362     | 4.5867     | 6.2412     |  25.2 | 50.06
Neigh   | 0.0011306  | 0.0011761  | 0.0012081  |   0.0 |  0.01
Comm    | 0.82983    | 0.95496    | 1.092      |   6.3 | 10.42
Output  | 8.5069e-05 | 8.626e-05  | 8.9768e-05 |   0.0 |  0.00
Modify  | 0.95279    | 1.1408     | 1.2171     |   6.0 | 12.45
Other   |            | 0.1379     |            |       |  1.50

Nlocal:    24 ave 35 max 9 min
Histogram: 2 1 5 14 9 36 32 17 10 2
Nghost:    2622.41 ave 2680 max 2577 min
Histogram: 9 26 17 16 16 9 3 4 14 14
Neighs:    8010.76 ave 12201 max 2517 min
Histogram: 2 2 5 13 22 26 31 12 11 4

Total # of neighbors = 1025377
Ave neighs/atom = 333.782
Ave special neighs/atom = 1.95312
Neighbor list builds = 4
Dangerous builds = 0
PPPM initialization ...
  extracting TIP4P info from pair style
  using 12-bit tables for long-range coulomb (../kspace.cpp:321)
  G vector (1/distance) = 0.308137
  grid = 30 30 30
  stencil order = 5
  estimated absolute RMS force accuracy = 0.00402603
  estimated relative force accuracy = 1.21243e-05
  using double precision FFTs
  3d grid and FFT values/proc = 2475 256
Setting up Verlet run ...
  Unit style    : real
  Current step  : 20000
  Time step     : 0.1
Per MPI rank memory allocation (min/avg/max) = 7.941 | 8.12 | 8.208 Mbytes
Step Temp E_pair E_mol TotEng Press Volume 
   20000    299.81232   -15418.735            0   -13567.917   -13038.846    36128.002 
   30000    289.24895   -15555.954            0   -13770.345   -691.03282    32256.747 
Loop time of 9.50503 on 128 procs for 10000 steps with 3072 atoms

Performance: 9.090 ns/day, 2.640 hours/ns, 1052.074 timesteps/s
99.4% CPU use with 128 MPI tasks x no OpenMP threads

MPI task timing breakdown:
Section |  min time  |  avg time  |  max time  |%varavg| %total
---------------------------------------------------------------
Pair    | 0.92656    | 2.5913     | 3.5369     |  26.6 | 27.26
Bond    | 0.00098784 | 0.0013021  | 0.0022767  |   0.6 |  0.01
Kspace  | 3.5632     | 4.5478     | 6.23       |  20.2 | 47.85
Neigh   | 0.014882   | 0.015072   | 0.015242   |   0.1 |  0.16
Comm    | 0.93087    | 1.0392     | 1.1483     |   4.8 | 10.93
Output  | 9.1611e-05 | 9.5099e-05 | 9.7803e-05 |   0.0 |  0.00
Modify  | 0.97246    | 1.1656     | 1.253      |   6.2 | 12.26
Other   |            | 0.1446     |            |       |  1.52

Nlocal:    24 ave 33 max 12 min
Histogram: 2 0 2 14 21 29 36 15 6 3
Nghost:    2860.78 ave 2898 max 2835 min
Histogram: 10 17 17 27 14 14 14 6 4 5
Neighs:    8913.96 ave 11659 max 4377 min
Histogram: 2 1 5 7 16 25 26 22 15 9

Total # of neighbors = 1140987
Ave neighs/atom = 371.415
Ave special neighs/atom = 1.95312
Neighbor list builds = 49
Dangerous builds = 0
PPPM initialization ...
  extracting TIP4P info from pair style
  using 12-bit tables for long-range coulomb (../kspace.cpp:321)
  G vector (1/distance) = 0.310871
  grid = 30 30 30
  stencil order = 5
  estimated absolute RMS force accuracy = 0.00359709
  estimated relative force accuracy = 1.08325e-05
  using double precision FFTs
  3d grid and FFT values/proc = 2475 256
Setting up Verlet run ...
  Unit style    : real
  Current step  : 30000
  Time step     : 0.2
Per MPI rank memory allocation (min/avg/max) = 7.951 | 8.176 | 8.218 Mbytes
Step Temp E_pair E_mol TotEng Press Volume 
   30000    289.24895   -15555.951            0   -13770.343   -5080.4536    32256.747 
   40000     315.0557    -15682.16            0    -13737.24     161.7368    31158.208 
Loop time of 9.24695 on 128 procs for 10000 steps with 3072 atoms

Performance: 18.687 ns/day, 1.284 hours/ns, 1081.438 timesteps/s
99.4% CPU use with 128 MPI tasks x no OpenMP threads

MPI task timing breakdown:
Section |  min time  |  avg time  |  max time  |%varavg| %total
---------------------------------------------------------------
Pair    | 1.5401     | 2.7659     | 3.4114     |  20.3 | 29.91
Bond    | 0.0009718  | 0.0012913  | 0.0023102  |   0.6 |  0.01
Kspace  | 3.4293     | 4.1104     | 5.3444     |  16.6 | 44.45
Neigh   | 0.030764   | 0.03113    | 0.031431   |   0.1 |  0.34
Comm    | 0.95901    | 1.0526     | 1.1684     |   4.6 | 11.38
Output  | 8.5539e-05 | 8.6731e-05 | 8.8906e-05 |   0.0 |  0.00
Modify  | 0.94181    | 1.1429     | 1.2243     |   6.3 | 12.36
Other   |            | 0.1426     |            |       |  1.54

Nlocal:    24 ave 31 max 18 min
Histogram: 11 6 10 21 26 20 18 7 6 3
Nghost:    2961.57 ave 2993 max 2936 min
Histogram: 7 11 19 17 17 23 17 11 3 3
Neighs:    9238.95 ave 12737 max 6428 min
Histogram: 8 12 17 18 19 19 14 15 5 1

Total # of neighbors = 1182586
Ave neighs/atom = 384.956
Ave special neighs/atom = 1.95312
Neighbor list builds = 99
Dangerous builds = 0
PPPM initialization ...
  extracting TIP4P info from pair style
  using 12-bit tables for long-range coulomb (../kspace.cpp:321)
  G vector (1/distance) = 0.3117
  grid = 30 30 30
  stencil order = 5
  estimated absolute RMS force accuracy = 0.00347555
  estimated relative force accuracy = 1.04665e-05
  using double precision FFTs
  3d grid and FFT values/proc = 2475 256
Setting up Verlet run ...
  Unit style    : real
  Current step  : 40000
  Time step     : 0.5
Per MPI rank memory allocation (min/avg/max) = 7.955 | 8.206 | 8.219 Mbytes
Step Temp E_pair E_mol TotEng Press Volume 
   40000     315.0557   -15682.158            0   -13737.238    1750.0422    31158.208 
   50000    293.63185    -15836.32            0   -14023.655    308.41248    31186.586 
Loop time of 9.50542 on 128 procs for 10000 steps with 3072 atoms

Performance: 45.448 ns/day, 0.528 hours/ns, 1052.031 timesteps/s
99.4% CPU use with 128 MPI tasks x no OpenMP threads

MPI task timing breakdown:
Section |  min time  |  avg time  |  max time  |%varavg| %total
---------------------------------------------------------------
Pair    | 2.0409     | 2.8047     | 3.4592     |  16.5 | 29.51
Bond    | 0.001011   | 0.0012817  | 0.0022549  |   0.6 |  0.01
Kspace  | 3.6101     | 4.2695     | 5.027      |  13.3 | 44.92
Neigh   | 0.073696   | 0.074303   | 0.075102   |   0.1 |  0.78
Comm    | 0.97281    | 1.0703     | 1.2115     |   4.9 | 11.26
Output  | 7.1473e-05 | 7.212e-05  | 8.8956e-05 |   0.0 |  0.00
Modify  | 0.94273    | 1.1442     | 1.2269     |   6.3 | 12.04
Other   |            | 0.141      |            |       |  1.48

Nlocal:    24 ave 33 max 16 min
Histogram: 2 5 21 14 32 26 11 12 4 1
Nghost:    2947.81 ave 2981 max 2918 min
Histogram: 5 11 11 21 21 20 19 13 3 4
Neighs:    9211.67 ave 12393 max 6169 min
Histogram: 5 10 12 17 20 20 23 9 7 5

Total # of neighbors = 1179094
Ave neighs/atom = 383.82
Ave special neighs/atom = 1.95312
Neighbor list builds = 241
Dangerous builds = 0
PPPM initialization ...
  extracting TIP4P info from pair style
  using 12-bit tables for long-range coulomb (../kspace.cpp:321)
  G vector (1/distance) = 0.311679
  grid = 30 30 30
  stencil order = 5
  estimated absolute RMS force accuracy = 0.00347869
  estimated relative force accuracy = 1.0476e-05
  using double precision FFTs
  3d grid and FFT values/proc = 2475 256
Setting up Verlet run ...
  Unit style    : real
  Current step  : 0
  Time step     : 2
Per MPI rank memory allocation (min/avg/max) = 8.201 | 8.212 | 8.219 Mbytes
Step Temp E_pair E_mol TotEng Press Volume 
       0    293.63185    -15836.32            0   -14023.655    -309.9662    31186.586 
   10000    299.61079   -15699.796            0   -13850.222   -42.474348    31362.572 
   20000     300.5047   -15804.592            0   -13949.499    516.86454    31289.975 
   30000    302.83312   -15781.121            0   -13911.654   -52.190688    31442.203 
   40000    298.60714   -15808.824            0   -13965.445   -619.31772    31586.888 
   50000    291.87286   -15753.601            0   -13951.795    203.27721    31354.822 
   60000    291.89688    -15867.59            0   -14065.636    925.34768     30724.02 
   70000    307.42975   -15748.021            0   -13850.178    561.31842     31151.35 
   80000    301.50496   -15814.496            0   -13953.228   -632.21772    31496.203 
   90000    302.73089    -15834.77            0   -13965.934   -569.73084    31453.275 
  100000    303.01205   -15712.008            0   -13841.436    260.16411    31063.549 
  110000    304.82197   -15728.733            0   -13846.989   -568.62335    31383.079 
  120000    303.34311   -15818.639            0   -13946.024    803.16594    30792.803 
  130000    296.05009    -15824.25            0   -13996.656   -1161.0631    31700.673 
  140000    304.14475   -15749.404            0    -13871.84    -356.3951    31569.021 
  150000    294.84474   -15664.474            0   -13844.322   -395.25578    31094.005 
  160000    299.19786   -15751.507            0   -13904.481   -970.70184     31562.53 
  170000      303.879   -15754.712            0   -13878.789    280.39209    31418.518 
  180000    304.53302     -15785.8            0   -13905.839   -430.26078    31162.199 
  190000      294.187   -15788.339            0   -13972.247   -344.71725    31065.898 
  200000    292.67145   -15817.525            0   -14010.788    -618.9882    31489.283 
  210000    288.03436   -15699.807            0   -13921.697    240.12129    31164.849 
  220000    301.41406   -15696.943            0   -13836.236    392.52442    31018.953 
  230000     308.2111   -15857.829            0   -13955.163    1055.5988    30825.128 
  240000    301.31689   -15717.112            0   -13857.006   -252.13166    31134.534 
  250000    303.00185   -15766.449            0   -13895.941    64.577388    31648.527 
  260000    305.68079   -15860.813            0   -13973.766   -27.276397    31538.348 
  270000    299.52113   -15822.856            0   -13973.835    671.36111    30761.068 
  280000    293.73488   -15781.198            0   -13967.897     617.6942    31143.459 
  290000    308.14531   -15740.728            0   -13838.468   -422.54127    31059.525 
  300000    300.42736    -15856.77            0   -14002.155    864.70884    31318.641 
  310000     300.0684   -15718.259            0   -13865.859    67.216159     31501.51 
  320000    296.58137   -15696.759            0   -13865.886   -249.82496    31153.031 
  330000    304.43203   -15815.144            0   -13935.806    396.92549    30966.131 
  340000    301.22049   -15779.685            0   -13920.173   -146.22836    31124.028 
  350000    295.10707   -15787.132            0    -13965.36     974.2808    30817.171 
  360000    305.04317   -15856.914            0   -13973.804    474.13857    30814.259 
  370000    298.83364   -15781.825            0   -13937.048   -195.17021    31051.357 
  380000     307.4073   -15841.815            0    -13944.11    948.45502    31317.972 
  390000    301.75346   -15810.454            0   -13947.652    171.36804    30847.117 
  400000    288.40296   -15764.141            0   -13983.755    103.33503    31254.164 
  410000    291.48532   -15720.164            0    -13920.75   -694.53032    31405.658 
  420000    291.97111   -15758.721            0   -13956.308   -335.23467    31173.496 
  430000    302.75237   -15811.606            0   -13942.638    367.50617    31283.365 
  440000    306.51159    -15767.86            0   -13875.685   -525.92774    31097.385 
  450000    299.08255   -15830.305            0   -13983.991   -216.69782    30916.716 
  460000    295.91773   -15824.853            0   -13998.077    141.98814     30927.24 
  470000    301.54628   -15761.376            0   -13899.853   -12.321726    31419.924 
  480000    302.91629   -15824.734            0   -13954.754     -413.802    31128.497 
  490000    302.67126   -15725.544            0   -13857.076   -549.50137    30959.207 
  500000    299.38626   -15799.178            0   -13950.989   -389.70869    30760.844 
  510000    300.97241   -15706.295            0   -13848.315   -196.31724     31293.25 
  520000     303.9453   -15857.153            0   -13980.821   -426.18392    30969.708 
  530000    309.71987   -15862.103            0   -13950.122    910.81658    31029.201 
  540000    307.42919    -15771.36            0    -13873.52    371.07197    30614.912 
  550000    300.49086   -15770.919            0   -13915.911    357.65884    31503.065 
  560000    297.64571   -15779.125            0   -13941.681    84.796056    31326.584 
  570000    299.65462    -15794.19            0   -13944.345   -814.50932    31405.122 
  580000    288.85586   -15792.903            0   -14009.721    545.18954    30951.263 
  590000    304.15625   -15716.241            0   -13838.607    781.99113    31167.221 
  600000    300.77788   -15821.325            0   -13964.546   -824.27677    31366.995 
  610000     299.4617   -15821.556            0   -13972.902    381.30265     31068.09 
  620000    295.74006   -15760.285            0   -13934.605   -448.49583    31410.399 
  630000     308.7055    -15664.12            0   -13758.401   -413.83049    31380.531 
  640000    311.27608   -15802.841            0   -13881.254   -501.86027    31000.793 
  650000    298.31077   -15801.265            0   -13959.716   -590.39313    30937.058 
  660000    295.76707   -15780.047            0     -13954.2   -407.74375    31486.089 
  670000    301.57995   -15782.323            0   -13920.592   -1100.7845    31387.203 
  680000    296.97587    -15813.66            0   -13980.351   -456.57827    31698.328 
  690000    302.97169   -15750.929            0   -13880.607   -210.45387    31267.584 
  700000    306.06568   -15805.092            0    -13915.67   -10.780115    31222.474 
  710000    303.10514   -15737.041            0   -13865.895   -320.50369    31074.762 
  720000    296.50673   -15788.606            0   -13958.194    140.74393    31390.175 
  730000    292.33532   -15765.138            0   -13960.476    525.75493    31313.419 
  740000    296.78858   -15820.666            0   -13988.513    503.66734    30849.981 
  750000    300.53526   -15817.734            0   -13962.453    698.36689    31062.798 
  760000    294.57802   -15864.891            0   -14046.385    222.63729    31221.887 
  770000    300.19526   -15725.806            0   -13872.623   -200.75506    31317.231 
  780000    287.69306    -15794.32            0   -14018.316   -319.28079    31574.441 
  790000    301.74617   -15730.338            0   -13867.581    56.753591    31183.424 
  800000     293.6084   -15835.636            0   -14023.116    198.28287    31150.094 
  810000    289.74046   -15799.145            0   -14010.502   -228.42602    30707.735 
  820000     286.1939   -15739.658            0   -13972.909   -612.65828    30967.469 
  830000    298.59162   -15793.076            0   -13949.793    214.26667    31172.197 
  840000    299.24866    -15827.89            0   -13980.551    623.69624    31026.145 
  850000    303.06664   -15853.077            0   -13982.168    36.854471    31394.254 
  860000    297.34146   -15801.626            0   -13966.061    186.31164    31161.296 
  870000    305.21793   -15826.791            0   -13942.602    266.87196     31287.21 
  880000    293.56241   -15746.647            0    -13934.41    -350.1816    31445.339 
  890000     291.4743   -15836.756            0    -14037.41     97.87111    31155.454 
  900000    296.54901   -15819.038            0   -13988.364   -94.157066    31298.068 
  910000    290.46161   -15712.397            0   -13919.303    139.37608    31523.009 
  920000    297.68653   -15749.774            0   -13912.078   -1017.5717    31707.114 
  930000    294.82258   -15841.904            0   -14021.888   -293.98939    31192.692 
  940000    296.31304   -15829.476            0   -14000.259    290.85006    31174.129 
  950000     299.7609     -15806.7            0   -13956.199    646.66002     30844.42 
  960000     295.4715   -15801.788            0   -13977.767    1098.8845    30609.077 
  970000    292.88465   -15825.041            0   -14016.989    -494.7387    31075.263 
  980000    295.73452   -15736.126            0    -13910.48    53.638079    30886.548 
  990000    300.48758   -15790.526            0   -13935.539   -1011.5038    31641.004 
 1000000    303.98169   -15831.094            0   -13954.537    1144.5338    30781.335 
 1010000    301.08133   -15793.917            0   -13935.265    203.20848    31243.991 
 1020000    302.67612   -15790.087            0   -13921.589   -486.65716    31256.138 
 1030000    306.97022   -15769.553            0   -13874.547    523.64345    31574.476 
 1040000    296.88804   -15763.127            0   -13930.361    504.90554    31267.651 
 1050000    297.62237   -15781.899            0     -13944.6    845.48101    30819.016 
 1060000    303.84925   -15814.776            0   -13939.036     106.4226    31110.751 
 1070000    296.52474   -15700.087            0   -13869.563    166.87747    31611.913 
 1080000    307.75371   -15808.404            0   -13908.561    138.25481    31303.263 
 1090000    287.33157   -15784.321            0   -14010.549    216.31337    30660.081 
 1100000    298.58495   -15744.498            0   -13901.256    1083.7682    31233.411 
 1110000    306.10843   -15774.172            0   -13884.486    9.4603882    31231.196 
 1120000    301.64245   -15815.748            0   -13953.632   -419.88879    31397.233 
 1130000    304.10971    -15849.04            0   -13971.692   -477.12522    31584.712 
 1140000    292.89775   -15679.817            0   -13871.684   -887.44544    31272.894 
 1150000    288.13031   -15775.854            0   -13997.151   -290.83662    31206.233 
 1160000    301.53267   -15718.388            0    -13856.95    -664.8507    31172.949 
 1170000    306.52734   -15794.352            0    -13902.08     107.7458    31375.608 
 1180000    297.31366   -15753.557            0   -13918.163    594.71225    31141.521 
 1190000    300.98932   -15807.541            0   -13949.456   -632.62637    30968.597 
 1200000    298.92166   -15809.988            0   -13964.668    438.08587    31279.186 
 1210000    293.90892   -15776.889            0   -13962.514     376.3204    30898.965 
 1220000    302.02458   -15743.116            0   -13878.641   -139.98768    30972.205 
 1230000    303.50437   -15710.832            0   -13837.222    240.36019     31073.23 
 1240000    301.94009    -15757.02            0   -13893.066    269.42428    31438.213 
 1250000    298.15675   -15712.136            0   -13871.538    -428.2113    31187.688 
 1260000    288.55052   -15841.162            0   -14059.865   -1118.6444    31528.447 
 1270000    295.43793   -15710.096            0   -13886.282     241.6007    31031.887 
 1280000    301.55021   -15784.686            0   -13923.139    857.62232    31247.371 
 1290000    296.80441   -15860.876            0   -14028.626   -458.49535    31097.368 
 1300000    301.54652   -15786.322            0   -13924.798    523.54246    31072.831 
 1310000    292.49993   -15803.576            0   -13997.899     381.2988     30973.34 
 1320000    291.32115   -15729.673            0   -13931.272   -124.37299    31464.397 
 1330000    290.61558   -15742.656            0   -13948.612    178.84254    31339.196 
 1340000    298.33411   -15781.492            0   -13939.799    403.20547    30592.371 
 1350000    293.46085   -15756.855            0   -13945.246    50.578029     31227.69 
 1360000    296.58801   -15798.682            0   -13967.768    308.35701    30987.938 
 1370000    295.45284   -15844.575            0   -14020.669    434.80778    31213.658 
 1380000    301.32187   -15794.369            0   -13934.231    986.41325    31283.162 
 1390000    294.56191   -15825.532            0   -14007.125    270.73018    31152.081 
 1400000    301.84115    -15734.54            0   -13871.197   -546.27443    31529.756 
 1410000    305.58153   -15763.108            0   -13876.674    224.19488    31162.786 
 1420000    295.51331   -15814.839            0   -13990.559   -352.44415    31280.011 
 1430000    300.76432   -15709.713            0   -13853.017   -531.96821    31210.759 
 1440000     284.3702   -15847.906            0   -14092.415    541.03511    31114.232 
 1450000    294.69657   -15774.276            0   -13955.038    552.43368    31032.584 
 1460000    294.33579   -15788.173            0   -13971.162    -443.9385    31385.994 
 1470000    311.23052   -15727.628            0   -13806.322   -189.04894    31193.551 
 1480000    291.09084   -15817.627            0   -14020.648    487.95203     31287.57 
 1490000    298.52843   -15688.183            0    -13845.29   -9.6777865    30760.075 
 1500000    303.06351   -15797.416            0   -13926.527    280.45138    31284.212 
 1510000    296.11863    -15790.41            0   -13962.393    106.10108    31557.788 
 1520000    299.29463   -15800.195            0   -13952.572   -44.023021    31225.068 
 1530000    297.90974   -15820.806            0   -13981.733    143.33682    31246.375 
 1540000    300.30106   -15861.828            0   -14007.992   -95.013001    30984.935 
 1550000    300.68081   -15764.679            0   -13908.499   -672.27027    31429.614 
 1560000    297.59487   -15684.811            0   -13847.682   -546.91921    31418.748 
 1570000    297.93971    -15770.43            0   -13931.171    294.15375    31107.162 
 1580000    295.01348   -15739.895            0   -13918.701   -323.64738    31228.166 
 1590000    292.64949   -15744.765            0   -13938.164   -249.25667    31372.352 
 1600000       301.58   -15784.151            0    -13922.42    251.90448    30925.346 
 1610000    303.96425    -15784.74            0    -13908.29   -847.26311     31742.36 
 1620000    292.43372   -15752.626            0   -13947.358    521.23721    31320.988 
 1630000    296.83617   -15707.536            0    -13875.09    10.697438    31055.432 
 1640000    308.05919   -15793.396            0   -13891.667   -426.47226    31422.458 
 1650000    295.94094   -15884.946            0   -14058.027     895.7845    30742.119 
 1660000    301.68563   -15742.065            0   -13879.682    290.11555     31394.79 
 1670000    296.40501   -15811.426            0   -13981.642    256.73793    31320.514 
 1680000    294.49291   -15754.176            0   -13936.195    121.47604    31420.967 
 1690000     301.7648   -15799.685            0   -13936.813   -602.12544     31794.52 
 1700000    285.57119   -15737.011            0   -13974.107   -709.48544    31357.777 
 1710000    300.75866   -15767.232            0   -13910.572   -128.91638    30930.106 
 1720000    290.80328    -15733.72            0   -13938.517    518.28641    30949.396 
 1730000    291.18624   -15784.118            0   -13986.551    271.09536    31426.764 
 1740000    296.16436   -15775.329            0    -13947.03    252.91145    31178.745 
 1750000     298.8458   -15754.279            0   -13909.426   -148.17067    31562.645 
 1760000    299.18792   -15821.985            0   -13975.021    147.58194    31457.951 
 1770000    295.02648   -15777.697            0   -13956.422    19.952559    31180.148 
 1780000    296.84272   -15727.913            0   -13895.426   -172.59066    30851.387 
 1790000    298.50645   -15798.861            0   -13956.104    507.70908    30813.282 
 1800000    292.63826   -15790.348            0   -13983.817    274.23894    31010.263 
 1810000    308.10784   -15778.636            0   -13876.607   -108.47842    31306.697 
 1820000    296.92944   -15679.723            0   -13846.702   -80.989618    31434.502 
 1830000    301.98467    -15857.42            0   -13993.191    101.75056    31105.987 
 1840000    297.72023   -15840.148            0   -14002.244   -116.98561     31088.61 
 1850000    315.60661   -15702.829            0   -13754.509    99.300709     31263.88 
 1860000    294.27518   -15821.708            0   -14005.072    731.91228    31222.175 
 1870000    299.22057   -15815.422            0   -13968.256   -331.97152    31390.797 
 1880000    289.03271   -15847.899            0   -14063.625   -159.36409    31661.237 
 1890000    298.19756   -15747.957            0   -13907.106   -143.05114    31216.952 
 1900000    296.90972   -15706.338            0   -13873.438   -180.67845    31311.119 
 1910000    301.44256   -15823.066            0   -13962.184   -604.20055    31081.613 
 1920000    300.82839   -15862.112            0   -14005.021   -39.485275    31215.668 
 1930000    299.41239   -15843.138            0   -13994.788    284.52602    31005.765 
 1940000    303.83046   -15791.566            0   -13915.942    331.66325    30710.001 
 1950000    294.83925   -15704.334            0   -13884.216    540.00378    31113.088 
 1960000    299.97626   -15880.811            0    -14028.98    1307.8554    30917.648 
 1970000    290.76051   -15827.999            0    -14033.06    27.020864    31081.298 
 1980000    303.75587   -15891.157            0   -14015.994   -373.96823    31130.137 
 1990000    298.51774    -15830.63            0   -13987.804   -210.46011    31703.553 
 2000000    302.61343   -15730.297            0   -13862.186     263.4513     31387.56 
 2010000    292.71759   -15733.967            0   -13926.946   -238.93819    31434.601 
 2020000     289.2848   -15747.973            0   -13962.143    224.25524    31146.683 
 2030000     301.7398   -15763.137            0   -13900.419   -19.814759    30992.718 
 2040000    295.32596   -15797.583            0    -13974.46    -549.6357    31343.531 
 2050000    303.75639   -15766.273            0   -13891.107    26.667392    31728.525 
 2060000    294.12102   -15823.053            0   -14007.368   -342.58696    31582.048 
 2070000    305.78031   -15804.553            0   -13916.893   -383.43659    30914.057 
 2080000    293.92047   -15819.167            0   -14004.721   -1144.6746    31707.273 
 2090000    299.73307   -15764.391            0   -13914.061    387.12351    31254.205 
 2100000    303.58737   -15815.121            0   -13940.998     95.28165    31274.151 
 2110000    299.99096   -15678.393            0   -13826.471    659.59095    30981.466 
 2120000    302.86406   -15720.004            0   -13850.347     751.6099    31152.098 
 2130000    297.75838   -15758.691            0   -13920.552   -165.63984    31548.527 
 2140000    300.21474   -15710.624            0   -13857.321    11.268043    31356.691 
 2150000    300.53988   -15639.004            0   -13783.694    264.75641    31540.343 
 2160000    290.26455   -15785.995            0   -13994.117   -672.81217     31661.31 
 2170000    287.62062   -15834.116            0    -14058.56    395.78067    30898.932 
 2180000    301.75628   -15710.221            0   -13847.401   -103.06524    31272.594 
 2190000    297.65135   -15762.811            0   -13925.333   -31.943921     31161.04 
 2200000    295.78768   -15796.478            0   -13970.505   -693.03751    31682.804 
 2210000    303.99487   -15731.062            0   -13854.424    1064.6971    30921.537 
 2220000     296.2199   -15782.598            0   -13953.957    663.48347    31204.811 
 2230000    300.90649    -15806.47            0   -13948.897   -147.34411    31404.443 
 2240000    292.79055   -15744.276            0   -13936.805   -504.21892    31240.365 
 2250000    301.85202   -15802.237            0   -13938.826   -260.46236     31052.87 
 2260000    301.76469   -15805.587            0   -13942.716    -83.44524    31184.303 
 2270000    295.80097   -15769.383            0   -13943.327   -266.14564    31183.305 
 2280000    290.01167   -15865.614            0   -14075.297    -456.9932    31363.711 
 2290000    286.14562   -15813.653            0   -14047.202   -1212.8454    31633.066 
 2300000    293.72444   -15781.562            0   -13968.325   -217.13506    31527.252 
 2310000    291.82415   -15778.666            0    -13977.16    186.91795    31442.803 
 2320000    309.79498   -15719.223            0   -13806.779     691.7861    31507.776 
 2330000    292.70126   -15859.863            0   -14052.943    352.96768    31235.923 
 2340000    292.84367   -15711.248            0   -13903.448   -495.59183    31220.317 
 2350000    301.18326    -15732.81            0   -13873.528   -313.37213     31463.18 
 2360000    304.36312   -15820.787            0   -13941.875    945.24845    30900.935 
 2370000    287.00412   -15808.329            0   -14036.579   -313.45548    31166.366 
 2380000    286.46628   -15780.302            0   -14011.871   -156.92085    30985.268 
 2390000    292.35632    -15696.68            0   -13891.889    816.72574    31274.872 
 2400000    298.38655   -15741.138            0   -13899.121   -469.58669    31235.795 
 2410000     290.6166   -15684.002            0   -13889.951   -284.26021    31538.212 
 2420000    295.50837   -15845.886            0   -14021.636    162.18533    31671.426 
 2430000    299.74748   -15856.959            0    -14006.54    407.40694    30867.653 
 2440000    296.20338   -15726.915            0   -13898.375   -310.65279    31118.372 
 2450000    297.36006   -15796.329            0   -13960.649    1045.3041    30862.423 
 2460000    301.09043    -15694.68            0   -13835.972   -245.15335    31187.122 
 2470000    295.85371   -15727.633            0   -13901.252    104.22811    31111.991 
 2480000    289.92655   -15886.506            0   -14096.715    124.09489    30657.816 
 2490000    297.28952   -15739.025            0    -13903.78   -138.67791    31375.666 
 2500000    287.58785   -15774.703            0   -13999.349   -68.637571    31434.855 
 2510000    305.15232   -15787.822            0   -13904.038   -778.92477     31229.64 
 2520000     298.0694   -15728.396            0   -13888.337   -31.402201    31183.199 
 2530000    296.85237   -15777.133            0   -13944.587    657.84565    31150.386 
 2540000    299.17947   -15795.724            0   -13948.812    1045.1862    31197.613 
 2550000    293.42496    -15803.71            0   -13992.322   -100.10497    31316.421 
 2560000    299.14703   -15761.976            0   -13915.265     354.2904    31197.419 
 2570000    299.41294   -15780.262            0   -13931.908   -366.29009    31675.926 
 2580000    298.66009   -15840.805            0   -13997.099    115.83625    30737.318 
 2590000    302.80005   -15789.679            0   -13920.416    597.89515    30757.115 
 2600000    292.33984   -15793.116            0   -13988.427   -390.89507    31222.147 
 2610000    297.15476   -15769.433            0   -13935.021    -138.3147    31690.983 
 2620000    295.93898   -15820.394            0   -13993.487    650.56778    31650.683 
 2630000    292.51215   -15752.199            0   -13946.446    176.44384    31104.523 
 2640000    298.53554   -15725.083            0   -13882.146   -249.35604    31149.457 
 2650000    303.26091   -15883.609            0   -14011.501    871.57435    30740.023 
 2660000    292.86065   -15780.191            0   -13972.287   -822.90739     31071.63 
 2670000    300.32213   -15728.562            0   -13874.597   -310.31479    31424.352 
 2680000    299.01899   -15719.903            0   -13873.981   -170.42248     31082.96 
 2690000    300.65244   -15759.107            0   -13903.102    603.63009    31011.802 
 2700000    300.22277   -15808.412            0    -13955.06     134.1474    31020.247 
 2710000    294.72812   -15903.805            0   -14084.372    242.56007    30826.614 
 2720000    293.47009   -15732.876            0   -13921.209   -796.36987    31301.851 
 2730000    291.96949   -15813.893            0    -14011.49    78.292803    30949.051 
 2740000    296.67519   -15836.224            0   -14004.772   -395.88516    31274.062 
 2750000    298.44643   -15732.033            0   -13889.647   -407.23016    31270.612 
 2760000    300.31111   -15801.207            0    -13947.31   -1264.0728    31837.914 
 2770000    295.20009   -15811.166            0    -13988.82     4.533154    31450.528 
 2780000     294.4207   -15711.212            0   -13893.677    -24.89675    31254.004 
 2790000    303.45238   -15781.962            0   -13908.672     -251.867    31591.361 
 2800000    301.71612   -15743.785            0   -13881.214   -430.37021    31168.438 
 2810000    297.19434   -15796.585            0   -13961.928    707.63111    30904.582 
 2820000    305.39045   -15824.263            0   -13939.009   -2.9448504    30990.978 
 2830000    287.53749   -15654.083            0    -13879.04    472.77408    31737.919 
 2840000    298.70669   -15782.384            0    -13938.39    452.48349    31281.058 
 2850000    296.73617   -15811.123            0   -13979.294    85.157569    31425.441 
 2860000    304.54132   -15843.996            0   -13963.984    341.10876     31039.94 
 2870000    294.55573   -15760.705            0   -13942.337   -787.61795    31619.212 
 2880000    293.89814   -15807.453            0   -13993.144   -295.15658    31549.759 
 2890000    303.26797   -15777.258            0   -13905.106    635.73104    30974.219 
 2900000    301.70221   -15798.475            0   -13935.989   -85.367385    31315.497 
 2910000    305.20154   -15700.051            0   -13815.963    275.20413    31533.511 
 2920000    298.33943   -15721.225            0   -13879.499    -48.40549     31121.35 
 2930000    299.04093   -15870.386            0   -14024.329   -129.23537    31771.548 
 2940000    300.74059   -15709.267            0   -13852.717   -178.27977    31288.938 
 2950000    293.96513   -15767.784            0   -13953.061    58.690233    31223.262 
 2960000    305.63453   -15795.704            0   -13908.944    272.54451     31310.02 
 2970000    295.81698   -15735.597            0   -13909.443    -452.0492    31595.563 
 2980000    301.09491   -15724.514            0   -13865.777    42.469117    31307.599 
 2990000    290.95303   -15867.241            0   -14071.113    483.96324    30911.067 
 3000000     290.7695   -15710.915            0    -13915.92   -472.89975    31452.711 
 3010000    290.18468   -15835.629            0   -14044.244   -482.55674    31445.888 
 3020000    301.91785    -15911.42            0   -14047.604    462.68262    30876.179 
 3030000    297.88575   -15804.722            0   -13965.796   -690.91868    30947.909 
 3040000    292.13583   -15727.594            0   -13924.165   -611.11098    31234.939 
 3050000     294.0274   -15664.104            0   -13848.997    238.41889    31567.959 
 3060000    294.71934   -15774.957            0   -13955.578    582.34829    31001.018 
 3070000     303.2107   -15764.932            0   -13893.135      225.806    31219.391 
 3080000    305.68221   -15640.221            0   -13753.166   -692.79963    31323.486 
 3090000    296.34521   -15761.698            0   -13932.283   -55.106971    31604.763 
 3100000     301.1097    -15817.78            0   -13958.952   -493.36178    31164.289 
 3110000    298.50117   -15736.449            0   -13893.724    733.58133    31017.476 
 3120000    300.79587   -15660.455            0   -13803.565    288.83183    30745.194 
 3130000    294.20071   -15763.366            0   -13947.189    102.24371    31397.353 
 3140000    296.40446   -15814.056            0   -13984.274   -64.319267    31157.129 
 3150000     297.3491   -15808.753            0    -13973.14    625.64407    30801.657 
 3160000    307.11634   -15755.181            0   -13859.273    1168.1563    30673.291 
 3170000    304.92359   -15746.723            0   -13864.351   -872.42765     31519.41 
 3180000    301.08625   -15761.911            0   -13903.228   -916.23294    31638.645 
 3190000    304.61471   -15791.593            0   -13911.128    65.860942      31209.8 
 3200000    292.87313   -15700.379            0   -13892.398   -420.23876    31693.193 
 3210000    300.77592   -15728.286            0   -13871.519    302.15192    31065.971 
 3220000    294.39406   -15790.002            0   -13972.632    -279.5012    31068.769 
 3230000    296.98632   -15753.054            0   -13919.681   -794.05436    31249.444 
 3240000    291.02158   -15784.168            0   -13987.616   -75.116495    30743.575 
 3250000    296.47138   -15798.862            0   -13968.668    656.04422    31015.337 
 3260000    300.54832   -15757.796            0   -13902.434    184.24512    31101.176 
 3270000    297.01717    -15769.24            0   -13935.677   -510.79955    31201.102 
 3280000    300.34661   -15834.671            0   -13980.554    282.92724    31092.215 
 3290000    304.36357   -15875.763            0   -13996.848   -233.40709    31162.808 
 3300000    301.40202   -15878.045            0   -14017.413    628.54152    31049.076 
 3310000    298.13496   -15785.695            0   -13945.231   -993.61456    31382.887 
 3320000    297.69278   -15728.556            0   -13890.822    233.87036    31299.788 
 3330000    294.50054   -15749.495            0   -13931.467    55.278666    30831.969 
 3340000    301.75056   -15697.186            0   -13834.402    447.89286    31457.225 
 3350000    302.80732    -15689.06            0   -13819.753     821.2603    30870.565 
 3360000    306.85767   -15775.323            0   -13881.011   -41.941461    31082.367 
 3370000    296.27841   -15709.568            0   -13880.565    120.35989    31498.404 
 3380000     294.6036   -15768.502            0   -13949.838    478.79742    30914.006 
 3390000    296.31414   -15860.249            0   -14031.026   -11.081112    30935.347 
 3400000    291.05908   -15828.408            0   -14031.626   -267.98021    31254.863 
 3410000    296.85269   -15904.145            0   -14071.597   -303.15823    31203.036 
 3420000    295.17545   -15816.626            0   -13994.432    428.05942    31121.528 
 3430000    293.75603   -15712.865            0   -13899.434   -396.41937    31188.007 
 3440000    296.41814   -15751.333            0   -13921.468    682.31523    31870.415 
 3450000    302.79248   -15776.812            0   -13907.596    53.960043    31187.166 
 3460000     291.2882   -15774.537            0    -13976.34   -503.96493    31321.593 
 3470000    294.66366   -15770.819            0   -13951.784   -336.08715    30980.949 
 3480000    292.32012   -15696.656            0   -13892.089   -319.14106    31383.204 
 3490000    298.94285   -15665.134            0   -13819.683    728.38271    31081.034 
 3500000    292.69906   -15676.265            0   -13869.359   -288.78931    31651.567 
 3510000    291.82858   -15747.644            0   -13946.111   -1347.3133    31545.132 
 3520000    296.39911   -15790.846            0   -13961.098    536.57224    31072.705 
 3530000    289.52368   -15850.344            0    -14063.04   -376.83332    31646.396 
 3540000    297.64432   -15789.113            0   -13951.678   -242.52757    31472.634 
 3550000    302.76076   -15689.363            0   -13820.343   -1142.2533    31309.847 
 3560000    295.14912   -15748.679            0   -13926.647     348.2832    31209.075 
 3570000     303.7512   -15833.299            0   -13958.164   -147.98948    31205.573 
 3580000    305.99986   -15795.358            0   -13906.342    335.71202    31149.484 
 3590000    287.14511   -15834.695            0   -14062.075    169.32805     30708.84 
 3600000    305.20405   -15917.938            0   -14033.835    113.04136    30828.674 
 3610000    295.87311   -15782.666            0   -13956.165    -506.7938    31409.293 
 3620000    294.14304   -15762.612            0   -13946.791    489.36015    31023.648 
 3630000    308.82877    -15806.75            0   -13900.271   -680.49512    31201.968 
 3640000    304.06834    -15776.26            0   -13899.168    211.59096    31137.958 
 3650000    295.37285   -15739.005            0   -13915.592   -263.33797    31222.994 
 3660000     292.1879   -15862.778            0   -14059.027    250.09559    31522.457 
 3670000    296.36155   -15847.577            0   -14018.061   -422.06181    31164.082 
 3680000    295.14284   -15752.445            0   -13930.452   -728.52768    31316.299 
 3690000    296.67475   -15746.443            0   -13914.993    1215.2547    30768.665 
 3700000      299.518   -15813.469            0   -13964.467   -26.690559    31292.983 
 3710000    292.92789   -15797.607            0   -13989.288   -479.38636    31211.317 
 3720000    295.38225   -15856.868            0   -14033.397   -1168.5299    31461.052 
 3730000    300.23641   -15713.493            0   -13860.057   -298.59094    31348.938 
 3740000    293.42019   -15786.897            0   -13975.539    24.116111    31169.273 
 3750000    297.11143   -15828.092            0   -13993.947    116.14434    31222.121 
 3760000    295.92617   -15719.414            0   -13892.585    208.87537    31339.165 
 3770000    290.18183   -15747.304            0   -13955.937    81.576964    31108.694 
 3780000    302.99476   -15746.355            0    -13875.89   -442.38623    31094.794 
 3790000     297.1211   -15762.861            0   -13928.656   -999.15532    31316.257 
 3800000    302.92038   -15780.053            0   -13910.047   -247.94807    31144.749 
 3810000    294.99877   -15765.298            0   -13944.195   -492.92473     31742.61 
 3820000    292.32888   -15685.117            0   -13880.496   -145.83175    31331.018 
 3830000    303.22588   -15766.334            0   -13894.443    511.35424    30864.373 
 3840000    288.01277    -15906.22            0   -14128.243   -737.52606     31306.46 
 3850000    302.16703   -15838.695            0    -13973.34    362.12423    30770.648 
 3860000    298.75435   -15782.293            0   -13938.006    66.989423    30964.972 
 3870000    295.36339    -15692.61            0   -13869.256   -454.56687    31664.398 
 3880000    292.79268   -15792.176            0   -13984.692   -174.24118    31142.619 
 3890000    292.77622   -15781.957            0   -13974.574   -284.60084    31187.639 
 3900000    303.97146   -15804.471            0   -13927.977   -443.72615    31136.168 
 3910000    295.51914   -15825.533            0   -14001.217    868.46708    31038.088 
 3920000    293.09379   -15754.108            0   -13944.764    118.22764    31213.259 
 3930000    297.31301    -15704.46            0   -13869.071     363.9105    31617.316 
 3940000    293.76653   -15742.022            0   -13928.526    360.24538    31362.775 
 3950000    306.49109    -15747.75            0   -13855.701   -560.44342    31276.861 
 3960000    290.30006   -15761.515            0   -13969.418     781.6618    31546.755 
 3970000    290.43448   -15696.226            0   -13903.299   -202.04935    31376.252 
 3980000     297.5765   -15688.665            0   -13851.648   -570.94737    31314.962 
 3990000    301.14174   -15784.034            0   -13925.009   -108.15568    30815.517 
 4000000    297.59541   -15748.101            0   -13910.968    -51.68921    31627.093 
 4010000    299.69985   -15754.978            0   -13904.853    22.644842    31530.392 
 4020000    304.62244   -15746.243            0    -13865.73   -202.41183     31219.63 
 4030000    290.37941   -15733.955            0   -13941.368    29.677194    31101.416 
 4040000    302.79319   -15838.948            0   -13969.728    608.42351    31056.271 
 4050000     294.3488   -15768.402            0   -13951.312   -354.09195    31151.035 
 4060000    305.48364   -15818.432            0   -13932.602   -506.05849    31530.346 
 4070000    302.52454   -15751.991            0   -13884.429   -98.856143    31339.985 
 4080000    302.44691   -15829.311            0   -13962.228    616.61184    31412.497 
 4090000    310.28505   -15745.285            0   -13829.815   -516.86714    31032.545 
 4100000    290.77911   -15734.338            0   -13939.283    100.57143    31260.353 
 4110000    302.44129   -15720.121            0   -13853.073   -171.13893    31082.004 
 4120000    308.99055   -15868.881            0   -13961.402    631.38666    30699.721 
 4130000    296.31514   -15809.467            0   -13980.237   -202.00519    30992.986 
 4140000    288.21723   -15770.795            0   -13991.556   -952.36037    31839.482 
 4150000    300.87551    -15830.43            0   -13973.048   -13.900701     31131.01 
 4160000    291.27227   -15800.518            0   -14002.419    778.73351    31265.861 
 4170000    284.46341   -15712.239            0   -13956.173    270.97292    31379.487 
 4180000     295.8486   -15715.155            0   -13888.806   -892.22525    31513.526 
 4190000    287.83956   -15752.309            0   -13975.402   -305.74074    31579.305 
 4200000     296.1348   -15760.883            0   -13932.767     359.8419    31381.276 
 4210000    294.65971   -15737.993            0   -13918.983     20.28559    31567.957 
 4220000    298.93434   -15650.568            0   -13805.169   -125.58915    31331.099 
 4230000    297.62918   -15821.432            0    -13984.09   -99.189145     31324.59 
 4240000    289.21909   -15716.196            0   -13930.772   -387.80207    31358.032 
 4250000    298.53507   -15733.836            0   -13890.902   -935.89483    31623.047 
 4260000    299.10519   -15796.141            0   -13949.688   -201.93949    31100.089 
 4270000    298.42942    -15849.73            0   -14007.448   -636.81499    31337.736 
 4280000    290.93648   -15796.782            0   -14000.756   -416.07452    31023.507 
 4290000    307.90608   -15759.643            0    -13858.86    135.87515    31232.032 
 4300000    297.72787   -15851.943            0   -14013.992    121.71625    31000.719 
 4310000    296.60922   -15875.233            0   -14044.188   -966.64473    31324.016 
 4320000    295.01991    -15763.75            0   -13942.516    394.84886    31118.049 
 4330000    297.80442   -15800.876            0   -13962.452    287.62929    31420.291 
 4340000    298.75271   -15768.491            0   -13924.213   -613.83646    31225.253 
 4350000    294.23174   -15716.814            0   -13900.446    92.862523    31666.167 
 4360000    295.06922   -15784.234            0   -13962.696    1145.8042    30651.562 
 4370000     290.6908   -15770.625            0   -13976.115    559.22119    30822.112 
 4380000    290.92081   -15709.404            0   -13913.475    321.34535    31206.285 
 4390000    301.05692   -15780.003            0   -13921.501   -214.56555     31336.31 
 4400000    304.41438   -15665.064            0   -13785.836   -556.64549    31631.549 
 4410000    298.34183   -15815.833            0   -13974.092    426.70716    31001.202 
 4420000    296.97638   -15721.899            0   -13888.587    735.53666    30672.893 
 4430000    296.19484   -15750.349            0   -13921.862    455.60626     30810.06 
 4440000    298.51416    -15821.94            0   -13979.136    368.82225    31069.673 
 4450000    288.90049   -15767.881            0   -13984.424   -17.154745    31013.656 
 4460000     299.3635   -15665.416            0   -13817.368    121.08694    31671.676 
 4470000    299.69458   -15772.424            0   -13922.332    835.31145    30847.359 
 4480000    303.72504   -15750.975            0   -13876.002    520.10261    31200.872 
 4490000    304.62426    -15797.59            0   -13917.066   -192.49988    31098.628 
 4500000    296.73545   -15861.905            0    -14030.08    278.44916    30997.749 
 4510000    298.61873   -15752.391            0    -13908.94   -111.71923    31262.814 
 4520000    298.93487   -15803.514            0   -13958.112     206.3953    31126.285 
 4530000    297.33458   -15827.401            0   -13991.878    648.80093     31051.39 
 4540000    294.31692   -15894.621            0   -14077.727   -275.31782    31168.686 
 4550000    297.42854   -15676.811            0   -13840.708   -99.559232    31209.981 
 4560000    294.10239   -15691.037            0   -13875.467   -217.15168    31354.951 
 4570000    299.95307   -15781.429            0   -13929.742   -735.24124    31280.667 
 4580000    297.50646   -15771.796            0   -13935.212    302.97046    31266.178 
 4590000    286.55401   -15798.877            0   -14029.905    166.70183    31105.977 
 4600000    287.46969   -15877.294            0   -14102.669    718.37939    30754.669 
 4610000    305.75302   -15819.219            0   -13931.727   -840.94991    31328.705 
 4620000    302.83861   -15883.245            0   -14013.744    645.26511    30926.437 
 4630000    301.84501   -15789.842            0   -13926.475    323.47358    31057.328 
 4640000    302.12358   -15575.313            0   -13710.226    113.40128    31175.933 
 4650000     305.1766   -15799.319            0   -13915.385   -452.96439     31389.94 
 4660000    305.84265   -15740.364            0   -13852.319    14.512445    31089.903 
 4670000    301.90805   -15752.696            0    -13888.94     377.4239    31058.883 
 4680000    308.00972   -15753.417            0   -13851.994    853.51314    30529.599 
 4690000    290.40786   -15864.991            0   -14072.229     162.6784    31365.806 
 4700000    296.93422   -15777.334            0   -13944.282    867.82142     30875.53 
 4710000    299.99047   -15776.552            0   -13924.633    777.28295    31188.404 
 4720000    287.54691   -15797.464            0   -14022.363   -215.24955    31122.992 
 4730000     305.2535   -15706.571            0   -13822.163   -732.08477    31304.732 
 4740000     290.5052   -15801.422            0   -14008.059    129.00475    31091.571 
 4750000    300.80179   -15761.485            0   -13904.558   -771.73954    31434.289 
 4760000    299.44703   -15816.237            0   -13967.673    819.96148     31060.12 
 4770000    297.61853   -15825.515            0   -13988.239    -381.3793    31317.676 
 4780000    292.73528    -15724.06            0   -13916.929   -102.06809    31770.853 
 4790000    297.08433   -15797.542            0   -13963.564    1044.6332    31078.641 
 4800000    285.26487   -15772.789            0   -14011.776    779.14814    31105.702 
 4810000    304.08086   -15866.224            0   -13989.055   -569.18174    31477.233 
 4820000    299.54852   -15770.958            0   -13921.767    670.32016    31017.475 
 4830000    288.76995   -15820.476            0   -14037.824   -391.90149    31065.152 
 4840000    294.31159    -15832.06            0   -14015.199    354.81271    31295.931 
 4850000    291.76026   -15776.068            0   -13974.957    644.86055    30666.899 
 4860000    292.14799   -15757.475            0    -13953.97    484.11243    30987.703 
 4870000     300.4532   -15788.198            0   -13933.423   -41.690973    31061.496 
 4880000    293.81313   -15782.994            0    -13969.21    525.86151    31203.288 
 4890000    294.55377   -15724.724            0   -13906.368     416.6442    31540.078 
 4900000    298.07205   -15892.887            0   -14052.811    75.741482    31339.965 
 4910000    301.37297   -15766.631            0   -13906.178    444.98182    31194.821 
 4920000    293.30947   -15722.958            0   -13912.283   -365.49663    31563.503 
 4930000    306.12431   -15699.568            0   -13809.783   -523.11181     31314.12 
 4940000    299.74097   -15792.537            0   -13942.159   -7.7632252    31074.214 
 4950000    292.48138   -15790.545            0   -13984.982    426.03592    31166.948 
 4960000    303.40102   -15779.174            0   -13906.201    153.50143    31111.702 
 4970000    303.17749   -15786.348            0   -13914.755    390.81356    31087.597 
 4980000    299.74804   -15771.497            0   -13921.076     605.5265    30829.129 
 4990000     294.5033   -15808.522            0   -13990.478    156.39951    31012.867 
 5000000    292.03952   -15836.435            0     -14033.6    387.73725     30542.69 
Loop time of 5158.11 on 128 procs for 5000000 steps with 3072 atoms

Performance: 167.503 ns/day, 0.143 hours/ns, 969.348 timesteps/s
99.4% CPU use with 128 MPI tasks x no OpenMP threads

MPI task timing breakdown:
Section |  min time  |  avg time  |  max time  |%varavg| %total
---------------------------------------------------------------
Pair    | 1202.7     | 1432.4     | 1635.5     | 292.6 | 27.77
Bond    | 0.50219    | 0.6503     | 1.1592     |  12.6 |  0.01
Kspace  | 2097.3     | 2306       | 2531.4     | 228.9 | 44.71
Neigh   | 145.97     | 147.07     | 148.23     |   5.1 |  2.85
Comm    | 535.7      | 582.02     | 639.99     |  97.0 | 11.28
Output  | 0.042336   | 0.042722   | 0.043717   |   0.1 |  0.00
Modify  | 506.34     | 607.55     | 649.62     | 137.4 | 11.78
Other   |            | 82.46      |            |       |  1.60

Nlocal:    24 ave 34 max 16 min
Histogram: 3 6 21 24 19 32 11 7 3 2
Nghost:    2994.6 ave 3047 max 2949 min
Histogram: 6 9 13 18 21 27 16 13 4 1
Neighs:    9413.43 ave 13187 max 5675 min
Histogram: 2 10 11 20 24 21 16 14 6 4

Total # of neighbors = 1204919
Ave neighs/atom = 392.226
Ave special neighs/atom = 1.95312
Neighbor list builds = 437901
Dangerous builds = 0
PPPM initialization ...
  extracting TIP4P info from pair style
  using 12-bit tables for long-range coulomb (../kspace.cpp:321)
  G vector (1/distance) = 0.312177
  grid = 30 30 30
  stencil order = 5
  estimated absolute RMS force accuracy = 0.00340749
  estimated relative force accuracy = 1.02615e-05
  using double precision FFTs
  3d grid and FFT values/proc = 2475 256
Setting up Verlet run ...
  Unit style    : real
  Current step  : 0
  Time step     : 2
Per MPI rank memory allocation (min/avg/max) = 8.201 | 8.212 | 8.219 Mbytes
Density 
    1.093837 
   1.0698872 
   1.0605648 
   1.0768529 
   1.0588486 
   1.0705688 
   1.0574543 
   1.0633843 
   1.0764634 
   1.0550572 
   1.0802215 
   1.0710845 
   1.0700611 
   1.0809702 
   1.0668583 
   1.0756132 
   1.0666322 
   1.0614567 
   1.0572472 
   1.0670243 
   1.0605875 
   1.0784531 
   1.0618061 
   1.0662444 
   1.0624838 
    1.077705 
   1.0745383 
   1.0721774 
   1.0812173 
   1.0645484 
   1.0794977 
   1.0847078 
   1.0858577 
   1.0832388 
   1.0552088 
   1.0659478 
   1.0746743 
   1.0753316 
   1.0562724 
    1.066354 
   1.0781455 
   1.0823644 
   1.0673923 
   1.0688531 
   1.0716605 
   1.0718973 
   1.0693459 
   1.0765299 
   1.0741721 
   1.0718582 
   1.0826783 
   1.0761743 
   1.0624304 
     1.07484 
   1.0696726 
    1.074582 
   1.0766311 
   1.0607795 
   1.0851819 
   1.0769408 
    1.083925 
   1.0730739 
      1.0876 
   1.0630867 
   1.0928801 
   1.0629553 
   1.0596752 
   1.0711458 
   1.0800102 
   1.0662823 
   1.0781324 
   1.0653619 
   1.0676374 
   1.0695966 
   1.0709264 
   1.0755847 
   1.0785651 
   1.0626352 
   1.0903823 
   1.0640862 
     1.05691 
   1.0599542 
   1.0631429 
   1.0728564 
   1.0624551 
   1.0680814 
   1.0595272 
   1.0781225 
   1.0848385 
   1.0652095 
   1.0692819 
   1.0796129 
   1.0743147 
   1.0741676 
   1.0589262 
   1.0777304 
   1.0884046 
   1.0746621 
   1.0720326 
   1.0520727 
   1.0519567 
   1.0578791 
   1.0638981 
   1.0632169 
   1.0658576 
   1.0562064 
   1.0695762 
   1.0711986 
   1.0731352 
   1.0751829 
   1.0513737 
   1.0660932 
   1.0791982 
   1.0705424 
    1.066975 
   1.0614933 
   1.0770995 
   1.0735707 
   1.0646645 
   1.0652111 
   1.0691262 
   1.0710652 
   1.0671307 
   1.0748679 
   1.0601345 
    1.051958 
   1.0757767 
    1.067165 
   1.0773314 
   1.0489432 
   1.0693396 
   1.0606554 
   1.0600147 
   1.0715384 
   1.0839076 
   1.0493734 
   1.0581463 
    1.070643 
   1.0746822 
   1.0666041 
   1.0613044 
   1.0803578 
   1.0797718 
   1.0567126 
   1.0699001 
    1.053699 
   1.0747031 
   1.0537916 
   1.0764164 
   1.0602871 
   1.0680736 
   1.0707074 
   1.0665506 
   1.0815863 
    1.071482 
   1.0726064 
   1.0450346 
   1.0766205 
   1.0793055 
   1.0672835 
   1.0780388 
   1.0763405 
   1.0693342 
   1.0580703 
      1.0763 
   1.0636595 
   1.0636242 
   1.0592191 
   1.0726428 
   1.0678854 
   1.0736912 
   1.0810617 
   1.0730128 
   1.0901822 
   1.0757572 
   1.0677782 
   1.0686327 
   1.0821844 
   1.0706618 
   1.0739651 
    1.087814 
   1.0647874 
   1.0743137 
   1.0734611 
    1.070051 
   1.0792127 
   1.0719736 
    1.074822 
   1.0649801 
   1.0730398 
   1.0649684 
   1.0746955 
   1.0812162 
   1.0521926 
   1.0693633 
    1.087727 
   1.0686751 
   1.0843155 
   1.0651109 
    1.066259 
   1.0714319 
   1.0751611 
   1.0713646 
   1.0730989 
   1.0572648 
    1.059322 
   1.0756087 
    1.076786 
   1.0707483 
    1.061334 
   1.0815238 
   1.0778667 
   1.0715555 
   1.0638661 
   1.0578019 
   1.0950899 
   1.0750336 
   1.0649031 
   1.0627113 
   1.0721723 
   1.0737789 
   1.0823277 
   1.0507705 
   1.0670771 
   1.0802835 
   1.0655794 
   1.0458216 
   1.0763358 
   1.0790747 
   1.0632914 
   1.0784334 
   1.0644189 
   1.0538258 
    1.071529 
   1.0795809 
   1.0733686 
   1.0730959 
   1.0801504 
    1.069093 
   1.0791529 
   1.0700967 
   1.0770542 
   1.0601861 
   1.0602181 
   1.0623331 
   1.0745981 
   1.0866359 
    1.084299 
   1.0700004 
   1.0695518 
   1.0666514 
   1.0795709 
    1.072791 
   1.0624231 
   1.0566289 
   1.0549343 
   1.0707345 
   1.0505829 
   1.0516712 
   1.0719617 
   1.0640106 
   1.0693678 
   1.0607825 
   1.0811478 
   1.0648195 
   1.0759121 
   1.0779855 
   1.0641372 
   1.0828687 
   1.0715873 
   1.0695094 
   1.0630893 
   1.0557817 
     1.06392 
    1.078132 
   1.0660638 
   1.0697628 
   1.0619528 
   1.0663609 
   1.0807069 
   1.0761612 
   1.0740512 
   1.0649778 
   1.0669158 
   1.0727977 
    1.049739 
   1.0696391 
   1.0568876 
   1.0639985 
   1.0627818 
   1.0653183 
   1.0488536 
   1.0793642 
     1.05653 
   1.0726207 
   1.0741663 
   1.0684105 
   1.0760743 
   1.0729494 
   1.0719002 
   1.0727836 
   1.0759453 
   1.0769446 
   1.0580552 
   1.0772717 
   1.0636928 
   1.0715881 
   1.0793796 
   1.0796771 
   1.0792334 
   1.0778526 
   1.0727448 
   1.0709275 
   1.0659848 
   1.0744855 
   1.0601058 
   1.0721141 
   1.0519222 
   1.0754395 
   1.0546804 
    1.061502 
   1.0751448 
   1.0752088 
   1.0767996 
   1.0739464 
   1.0760923 
   1.0658803 
   1.0790563 
   1.0513991 
   1.0694378 
   1.0634063 
   1.0637989 
   1.0731614 
   1.0627681 
   1.0770038 
   1.0590957 
   1.0701902 
    1.059849 
   1.0843525 
   1.0741156 
   1.0663613 
   1.0834794 
   1.0738487 
   1.0759754 
   1.0696328 
   1.0703483 
   1.0786306 
   1.0690419 
    1.063158 
   1.0617464 
    1.071873 
   1.0598856 
   1.0760534 
   1.0688587 
   1.0679163 
   1.0813698 
   1.0715143 
   1.0613477 
   1.0666577 
   1.0547328 
   1.0651326 
   1.0846518 
   1.0625109 
   1.0808183 
   1.0680477 
    1.071084 
   1.0873323 
   1.0648834 
   1.0716066 
   1.0584764 
   1.0803123 
   1.0661361 
   1.0702417 
   1.0674419 
   1.0706107 
    1.060797 
   1.0940522 
   1.0940051 
   1.0699316 
   1.0543406 
   1.0711367 
   1.0590911 
   1.0656044 
   1.0603467 
   1.0611117 
   1.0674228 
   1.0539566 
   1.0698899 
   1.0638683 
   1.0669676 
   1.0557716 
   1.0716507 
   1.0662164 
    1.059354 
   1.0617995 
   1.0713698 
   1.0576385 
   1.0762036 
   1.0791809 
    1.064486 
   1.0665144 
   1.0700722 
   1.0538725 
   1.0730876 
    1.058708 
   1.0863367 
   1.0612085 
   1.0721134 
   1.0751104 
   1.0802536 
   1.0672929 
   1.0716026 
   1.0661458 
   1.0655068 
   1.0707981 
   1.0724397 
   1.0640952 
   1.0790005 
   1.0642439 
   1.0821225 
   1.0560206 
   1.0801471 
   1.0756139 
   1.0815743 
   1.0753869 
   1.0719353 
   1.0580621 
   1.0788781 
   1.0788808 
   1.0793241 
   1.0698215 
   1.0590224 
   1.0567623 
   1.0775453 
   1.0633799 
   1.0767458 
   1.0647745 
   1.0680169 
   1.0714014 
   1.0611856 
   1.0744598 
   1.0874663 
   1.0696402 
   1.0732847 
   1.0446591 
   1.0810163 
   1.0555313 
   1.0614772 
   1.0610479 
   1.0577964 
   1.0570438 
   1.0602647 
    1.074373 
    1.069879 
   1.0665949 
   1.0709339 
   1.0810095 
   1.0737385 
   1.0710439 
   1.0665223 
   1.0635768 
   1.0778396 
   1.0615085 
   1.0922486 
   1.0699086 
   1.0628256 
   1.0678542 
   1.0738152 
   1.0730635 
   1.0676676 
   1.0579952 
   1.0843587 
   1.0613981 
   1.0634226 
   1.0644819 
   1.0637466 
   1.0736667 
   1.0635399 
   1.0800927 
   1.0857916 
   1.0713748 
   1.0642266 
   1.0911613 
   1.0929363 
   1.0799567 
   1.0750847 
   1.0939782 
   1.0771603 
   1.0604388 
   1.0494176 
    1.079523 
   1.0627274 
   1.0736148 
   1.0799196 
   1.0538019 
   1.0860372 
   1.0737139 
    1.064081 
   1.0768695 
   1.0616563 
   1.0704646 
Loop time of 5184.3 on 128 procs for 5000000 steps with 3072 atoms

Performance: 166.657 ns/day, 0.144 hours/ns, 964.450 timesteps/s
99.4% CPU use with 128 MPI tasks x no OpenMP threads

MPI task timing breakdown:
Section |  min time  |  avg time  |  max time  |%varavg| %total
---------------------------------------------------------------
Pair    | 1199       | 1430.8     | 1624.3     | 289.4 | 27.60
Bond    | 0.51945    | 0.65614    | 1.133      |  13.8 |  0.01
Kspace  | 2085.8     | 2288.3     | 2511.8     | 226.5 | 44.14
Neigh   | 147.32     | 148.55     | 149.73     |   5.0 |  2.87
Comm    | 529.58     | 576.01     | 631.06     |  96.3 | 11.11
Output  | 0.019025   | 0.023789   | 0.041873   |   2.0 |  0.00
Modify  | 558.21     | 657.89     | 699.75     | 130.8 | 12.69
Other   |            | 82.15      |            |       |  1.58

Nlocal:    24 ave 31 max 18 min
Histogram: 13 6 9 33 14 9 22 7 10 5
Nghost:    2938.31 ave 2976 max 2896 min
Histogram: 1 5 7 19 21 25 27 14 7 2
Neighs:    9222.09 ave 12891 max 6092 min
Histogram: 3 12 15 19 30 19 12 9 7 2

Total # of neighbors = 1180428
Ave neighs/atom = 384.254
Ave special neighs/atom = 1.95312
Neighbor list builds = 437619
Dangerous builds = 0
Changing box ...
  orthogonal box = (0.706475 0.706475 0.706475) to (32.1942 32.1909 32.1909)
  orthogonal box = (0.706475 0.706475 0.706475) to (32.1942 32.1942 32.1909)
  orthogonal box = (0.706475 0.706475 0.706475) to (32.1942 32.1942 32.1942)
PPPM initialization ...
  extracting TIP4P info from pair style
  using 12-bit tables for long-range coulomb (../kspace.cpp:321)
  G vector (1/distance) = 0.311654
  grid = 30 30 30
  stencil order = 5
  estimated absolute RMS force accuracy = 0.00348233
  estimated relative force accuracy = 1.04869e-05
  using double precision FFTs
  3d grid and FFT values/proc = 2475 256
Setting up Verlet run ...
  Unit style    : real
  Current step  : 0
  Time step     : 0.001
Per MPI rank memory allocation (min/avg/max) = 8.201 | 8.212 | 8.219 Mbytes
Density 
   1.0701241 
   1.0701241 
Loop time of 8.08149 on 128 procs for 10000 steps with 3072 atoms

Performance: 0.107 ns/day, 224.486 hours/ns, 1237.396 timesteps/s
99.4% CPU use with 128 MPI tasks x no OpenMP threads

MPI task timing breakdown:
Section |  min time  |  avg time  |  max time  |%varavg| %total
---------------------------------------------------------------
Pair    | 1.3775     | 2.1166     | 3.1575     |  23.3 | 26.19
Bond    | 0.00070304 | 0.00082653 | 0.0014357  |   0.0 |  0.01
Kspace  | 3.0162     | 4.0486     | 4.782      |  16.6 | 50.10
Neigh   | 0          | 0          | 0          |   0.0 |  0.00
Comm    | 0.99162    | 1.0822     | 1.1476     |   3.5 | 13.39
Output  | 3.8422e-05 | 4.8465e-05 | 8.0009e-05 |   0.0 |  0.00
Modify  | 0.65059    | 0.71967    | 0.77512    |   3.7 |  8.91
Other   |            | 0.1136     |            |       |  1.41

Nlocal:    24 ave 31 max 17 min
Histogram: 5 2 22 9 12 41 12 14 3 8
Nghost:    2937.05 ave 2970 max 2902 min
Histogram: 2 6 15 16 21 20 23 13 8 4
Neighs:    9213.71 ave 13667 max 5945 min
Histogram: 5 9 16 33 17 28 14 3 1 2

Total # of neighbors = 1179355
Ave neighs/atom = 383.905
Ave special neighs/atom = 1.95312
Neighbor list builds = 0
Dangerous builds = 0
PPPM initialization ...
  extracting TIP4P info from pair style
  using 12-bit tables for long-range coulomb (../kspace.cpp:321)
  G vector (1/distance) = 0.311654
  grid = 30 30 30
  stencil order = 5
  estimated absolute RMS force accuracy = 0.00348233
  estimated relative force accuracy = 1.04869e-05
  using double precision FFTs
  3d grid and FFT values/proc = 2475 256
Setting up Verlet run ...
  Unit style    : real
  Current step  : 10000
  Time step     : 0.01
Per MPI rank memory allocation (min/avg/max) = 8.201 | 8.212 | 8.219 Mbytes
Density 
   1.0701241 
   1.0701241 
Loop time of 7.93243 on 128 procs for 10000 steps with 3072 atoms

Performance: 1.089 ns/day, 22.035 hours/ns, 1260.648 timesteps/s
99.4% CPU use with 128 MPI tasks x no OpenMP threads

MPI task timing breakdown:
Section |  min time  |  avg time  |  max time  |%varavg| %total
---------------------------------------------------------------
Pair    | 1.4384     | 2.1157     | 3.0784     |  22.2 | 26.67
Bond    | 0.00069494 | 0.00082656 | 0.0012644  |   0.0 |  0.01
Kspace  | 2.969      | 3.9149     | 4.6092     |  16.1 | 49.35
Neigh   | 0.0012125  | 0.0012361  | 0.0012576  |   0.0 |  0.02
Comm    | 0.97888    | 1.0812     | 1.1504     |   3.7 | 13.63
Output  | 3.1699e-05 | 4.1192e-05 | 7.0472e-05 |   0.0 |  0.00
Modify  | 0.63702    | 0.70696    | 0.76101    |   3.8 |  8.91
Other   |            | 0.1115     |            |       |  1.41

Nlocal:    24 ave 32 max 16 min
Histogram: 3 10 4 26 17 23 28 9 4 4
Nghost:    2934.8 ave 2970 max 2903 min
Histogram: 4 11 15 16 26 18 17 12 6 3
Neighs:    9215.96 ave 13569 max 6345 min
Histogram: 13 8 21 23 29 11 14 6 1 2

Total # of neighbors = 1179643
Ave neighs/atom = 383.998
Ave special neighs/atom = 1.95312
Neighbor list builds = 4
Dangerous builds = 0
PPPM initialization ...
  extracting TIP4P info from pair style
  using 12-bit tables for long-range coulomb (../kspace.cpp:321)
  G vector (1/distance) = 0.311654
  grid = 30 30 30
  stencil order = 5
  estimated absolute RMS force accuracy = 0.00348233
  estimated relative force accuracy = 1.04869e-05
  using double precision FFTs
  3d grid and FFT values/proc = 2475 256
Setting up Verlet run ...
  Unit style    : real
  Current step  : 20000
  Time step     : 0.1
Per MPI rank memory allocation (min/avg/max) = 8.201 | 8.212 | 8.219 Mbytes
Density 
   1.0701241 
   1.0701241 
Loop time of 8.01955 on 128 procs for 10000 steps with 3072 atoms

Performance: 10.774 ns/day, 2.228 hours/ns, 1246.952 timesteps/s
99.4% CPU use with 128 MPI tasks x no OpenMP threads

MPI task timing breakdown:
Section |  min time  |  avg time  |  max time  |%varavg| %total
---------------------------------------------------------------
Pair    | 1.5007     | 2.1258     | 3.106      |  18.9 | 26.51
Bond    | 0.00069275 | 0.00082526 | 0.00136    |   0.0 |  0.01
Kspace  | 3.0296     | 3.9781     | 4.5731     |  13.6 | 49.60
Neigh   | 0.013967   | 0.014147   | 0.014276   |   0.1 |  0.18
Comm    | 0.98397    | 1.0778     | 1.1426     |   3.7 | 13.44
Output  | 2.9175e-05 | 3.8781e-05 | 9.7201e-05 |   0.0 |  0.00
Modify  | 0.64014    | 0.71144    | 0.7647     |   3.8 |  8.87
Other   |            | 0.1114     |            |       |  1.39

Nlocal:    24 ave 32 max 12 min
Histogram: 1 0 2 5 23 25 27 28 13 4
Nghost:    2937.56 ave 2980 max 2905 min
Histogram: 8 14 15 16 25 19 15 9 5 2
Neighs:    9215.55 ave 12566 max 4979 min
Histogram: 1 0 10 19 24 19 24 16 9 6

Total # of neighbors = 1179591
Ave neighs/atom = 383.981
Ave special neighs/atom = 1.95312
Neighbor list builds = 43
Dangerous builds = 0
PPPM initialization ...
  extracting TIP4P info from pair style
  using 12-bit tables for long-range coulomb (../kspace.cpp:321)
  G vector (1/distance) = 0.311654
  grid = 30 30 30
  stencil order = 5
  estimated absolute RMS force accuracy = 0.00348233
  estimated relative force accuracy = 1.04869e-05
  using double precision FFTs
  3d grid and FFT values/proc = 2475 256
Setting up Verlet run ...
  Unit style    : real
  Current step  : 30000
  Time step     : 0.2
Per MPI rank memory allocation (min/avg/max) = 8.201 | 8.212 | 8.219 Mbytes
Density 
   1.0701241 
   1.0701241 
Loop time of 8.65359 on 128 procs for 10000 steps with 3072 atoms

Performance: 19.969 ns/day, 1.202 hours/ns, 1155.590 timesteps/s
99.3% CPU use with 128 MPI tasks x no OpenMP threads

MPI task timing breakdown:
Section |  min time  |  avg time  |  max time  |%varavg| %total
---------------------------------------------------------------
Pair    | 1.5227     | 2.1395     | 3.0544     |  18.3 | 24.72
Bond    | 0.00070547 | 0.00082971 | 0.0013132  |   0.0 |  0.01
Kspace  | 3.592      | 4.4554     | 5.0649     |  12.6 | 51.49
Neigh   | 0.027907   | 0.028142   | 0.028351   |   0.1 |  0.33
Comm    | 1.0255     | 1.1427     | 1.2128     |   4.0 | 13.20
Output  | 2.7321e-05 | 3.8222e-05 | 7.5551e-05 |   0.0 |  0.00
Modify  | 0.68848    | 0.76937    | 0.8278     |   4.2 |  8.89
Other   |            | 0.1176     |            |       |  1.36

Nlocal:    24 ave 34 max 17 min
Histogram: 6 13 25 12 27 28 7 6 3 1
Nghost:    2925.85 ave 2953 max 2893 min
Histogram: 1 4 10 14 24 17 25 17 13 3
Neighs:    9211.57 ave 13079 max 5674 min
Histogram: 5 3 17 22 21 24 17 11 7 1

Total # of neighbors = 1179081
Ave neighs/atom = 383.815
Ave special neighs/atom = 1.95312
Neighbor list builds = 89
Dangerous builds = 0
PPPM initialization ...
  extracting TIP4P info from pair style
  using 12-bit tables for long-range coulomb (../kspace.cpp:321)
  G vector (1/distance) = 0.311654
  grid = 30 30 30
  stencil order = 5
  estimated absolute RMS force accuracy = 0.00348233
  estimated relative force accuracy = 1.04869e-05
  using double precision FFTs
  3d grid and FFT values/proc = 2475 256
Setting up Verlet run ...
  Unit style    : real
  Current step  : 40000
  Time step     : 0.5
Per MPI rank memory allocation (min/avg/max) = 8.201 | 8.212 | 8.219 Mbytes
Density 
   1.0701241 
   1.0701241 
Loop time of 8.14694 on 128 procs for 10000 steps with 3072 atoms

Performance: 53.026 ns/day, 0.453 hours/ns, 1227.454 timesteps/s
99.4% CPU use with 128 MPI tasks x no OpenMP threads

MPI task timing breakdown:
Section |  min time  |  avg time  |  max time  |%varavg| %total
---------------------------------------------------------------
Pair    | 1.6774     | 2.1541     | 2.8079     |  15.4 | 26.44
Bond    | 0.00069834 | 0.00082527 | 0.0013572  |   0.0 |  0.01
Kspace  | 3.2371     | 3.8635     | 4.3363     |  11.5 | 47.42
Neigh   | 0.076978   | 0.077626   | 0.078436   |   0.1 |  0.95
Comm    | 1.096      | 1.2099     | 1.2833     |   4.4 | 14.85
Output  | 2.6219e-05 | 3.6318e-05 | 7.0181e-05 |   0.0 |  0.00
Modify  | 0.64225    | 0.72701    | 0.80523    |   4.7 |  8.92
Other   |            | 0.114      |            |       |  1.40

Nlocal:    24 ave 33 max 18 min
Histogram: 10 8 19 17 35 14 18 4 2 1
Nghost:    2936.81 ave 2993 max 2899 min
Histogram: 8 17 18 20 27 14 14 5 3 2
Neighs:    9213.91 ave 13785 max 5972 min
Histogram: 6 7 22 22 30 22 14 3 1 1

Total # of neighbors = 1179380
Ave neighs/atom = 383.913
Ave special neighs/atom = 1.95312
Neighbor list builds = 223
Dangerous builds = 0
PPPM initialization ...
  extracting TIP4P info from pair style
  using 12-bit tables for long-range coulomb (../kspace.cpp:321)
  G vector (1/distance) = 0.311654
  grid = 30 30 30
  stencil order = 5
  estimated absolute RMS force accuracy = 0.00348233
  estimated relative force accuracy = 1.04869e-05
  using double precision FFTs
  3d grid and FFT values/proc = 2475 256
Setting up Verlet run ...
  Unit style    : real
  Current step  : 0
  Time step     : 2
Per MPI rank memory allocation (min/avg/max) = 8.201 | 8.212 | 8.219 Mbytes
Density 
   1.0701241 
   1.0701241 
   1.0701241 
   1.0701241 
   1.0701241 
   1.0701241 
   1.0701241 
   1.0701241 
   1.0701241 
   1.0701241 
   1.0701241 
Loop time of 86.6633 on 128 procs for 100000 steps with 3072 atoms

Performance: 199.392 ns/day, 0.120 hours/ns, 1153.891 timesteps/s
99.4% CPU use with 128 MPI tasks x no OpenMP threads

MPI task timing breakdown:
Section |  min time  |  avg time  |  max time  |%varavg| %total
---------------------------------------------------------------
Pair    | 18.726     | 21.998     | 25.396     |  35.3 | 25.38
Bond    | 0.0069854  | 0.008316   | 0.012834   |   1.2 |  0.01
Kspace  | 37.001     | 40.41      | 43.685     |  26.8 | 46.63
Neigh   | 2.8732     | 2.8985     | 2.9244     |   0.6 |  3.34
Comm    | 11.465     | 12.709     | 13.596     |  12.8 | 14.66
Output  | 0.00031066 | 0.00039602 | 0.00083316 |   0.0 |  0.00
Modify  | 6.7911     | 7.4966     | 8.005      |  11.1 |  8.65
Other   |            | 1.143      |            |       |  1.32

Nlocal:    24 ave 34 max 16 min
Histogram: 4 11 18 22 20 21 18 9 4 1
Nghost:    2954.95 ave 2990 max 2906 min
Histogram: 3 4 8 10 17 28 16 19 17 6
Neighs:    9212.12 ave 13385 max 5669 min
Histogram: 9 7 20 12 24 25 15 9 5 2

Total # of neighbors = 1179151
Ave neighs/atom = 383.838
Ave special neighs/atom = 1.95312
Neighbor list builds = 8657
Dangerous builds = 0
WARNING: New thermo_style command, previous thermo_modify settings will be lost (../output.cpp:705)
PPPM initialization ...
  extracting TIP4P info from pair style
  using 12-bit tables for long-range coulomb (../kspace.cpp:321)
  G vector (1/distance) = 0.311654
  grid = 30 30 30
  stencil order = 5
  estimated absolute RMS force accuracy = 0.00348233
  estimated relative force accuracy = 1.04869e-05
  using double precision FFTs
  3d grid and FFT values/proc = 2475 256
Setting up Verlet run ...
  Unit style    : real
  Current step  : 0
  Time step     : 2
[...]
98190000    299.02697    298.00582    -205.5548   -7.9901303   -15681.078    1845.9705   -13835.108 
98200000    299.10129    297.74174    114.44693    47.988624   -15669.307    1846.4293   -13822.878 
98210000    301.33145      297.698    130.55709   -48.993167   -15809.342    1860.1966   -13949.145 
98220000    288.31344    298.25234  -0.48262377   -102.07014    -15658.53    1779.8331   -13878.697 
98230000    302.86493     298.4177    639.53212    21.193222   -15765.809    1869.6632   -13896.145 
98240000    298.39588    298.02597   -105.78187    52.027561   -15769.445    1842.0747    -13927.37 
98250000    292.63552    297.77979    180.80039   -6.3761366   -15761.259    1806.5144   -13954.744 
98260000    290.41854    297.69989   -789.57469   -6.9248064   -15784.653    1792.8285   -13991.824 
98270000    292.75078    297.95451    252.88104    3.6341718   -15804.204     1807.226   -13996.978 
98280000    299.35568    298.14575    141.05957    56.595849   -15802.431    1847.9997   -13954.431 
98290000      296.786    298.35021    381.78786    1.0523347   -15735.239    1832.1364   -13903.103 
98300000    283.84841    298.07477    97.884377   -31.664482   -15691.173    1752.2693   -13938.903 
98310000    295.25424    297.65994    141.30624     8.162177   -15828.682    1822.6805   -14006.001 
98320000    297.16028    298.10555   -593.54639     96.81034   -15778.956     1834.447   -13944.509 
98330000    301.90879     298.2562   -501.46091    83.649469   -15775.724    1863.7608   -13911.963 
98340000    301.39544     297.8868   -81.603225   -46.247702   -15720.757    1860.5917   -13860.165 
98350000    296.42747    298.26965    574.47577   -110.61374   -15758.991    1829.9231   -13929.068 
98360000    303.66709    298.16819    293.87715   -74.451165   -15760.661    1874.6152   -13886.046 
98370000    289.52718    298.06055      60.0266     46.12858   -15779.913    1787.3259   -13992.588 
98380000    298.18933    297.89741    139.86482   -41.167687   -15752.701    1840.7995   -13911.901 
98390000    300.85238    298.02599   -592.16308    96.466873   -15829.773    1857.2393   -13972.534 
98400000    298.11667    298.20942   -274.99855   -15.531563   -15831.561     1840.351    -13991.21 
98410000    304.80818    297.59567    155.32326   -35.611917   -15784.699    1881.6594   -13903.039 
98420000     293.3516    297.78892    -112.4268  -0.73427663   -15701.125     1810.935    -13890.19 
98430000    296.72922     298.0799    520.67268   -67.608296    -15767.25    1831.7859   -13935.464 
98440000    302.26797    298.08244   -177.89912    36.223326   -15798.548     1865.978   -13932.569 
98450000    292.69493    298.25224      -560.07    69.311124   -15790.742    1806.8812   -13983.861 
98460000    298.87762    297.29602    284.72191     82.76701   -15682.954    1845.0486   -13837.905 
98470000    296.46095     298.4103    92.432061    14.132914   -15731.074    1830.1298   -13900.944 
98480000    296.78967    298.31719    642.99892    37.185071   -15756.041    1832.1591   -13923.882 
98490000    297.30446    297.97503    40.838727   -19.384293   -15774.391     1835.337   -13939.054 
98500000    292.18087    297.92694   -286.03817    62.293602   -15694.739    1803.7078   -13891.032 
98510000    295.64275    298.21261     382.3054    71.745664   -15846.758    1825.0789   -14021.679 
98520000    297.02317    298.24816   -591.50903   -18.611056   -15704.821    1833.6005   -13871.221 
98530000    311.61204    297.96842     17.03768    29.606278   -15847.021    1923.6614    -13923.36 
98540000    304.41877    298.11254    918.12239   -107.62527   -15799.112    1879.2555   -13919.856 
98550000    294.19521    298.39792    261.23413   -5.2204379   -15820.284    1816.1428   -14004.142 
98560000    304.70921    298.02695    457.15456   -13.995414    -15721.66    1881.0484   -13840.611 
98570000     288.7057    297.79791    -408.5234   -26.680318   -15801.314    1782.2547    -14019.06 
98580000    297.29611    297.86041    362.04114   -52.294825   -15774.393    1835.2855   -13939.107 
98590000    296.18935    298.23333    -115.7074    40.458989   -15930.092    1828.4532   -14101.639 
98600000    300.09017    297.90994   -29.352734    80.879039   -15779.282    1852.5339   -13926.748 
98610000    305.29982    298.35623    508.33154    68.657423   -15752.612    1884.6944   -13867.918 
98620000    298.37055    298.08809    495.92713   -15.406547   -15716.609    1841.9183   -13874.691 
98630000    297.38188    298.00689   -215.44788    115.89973   -15824.909    1835.8149   -13989.094 
98640000    300.11246    298.19228   -312.16715   -31.931235   -15741.158    1852.6715   -13888.487 
98650000    300.78711     298.1833   -922.36576   -16.018193    -15766.99    1856.8363   -13910.154 
98660000     296.5929    298.15954      471.065   -4.7309727   -15727.832    1830.9444   -13896.888 
98670000    302.42904    298.53071    540.59425    5.7725618   -15817.214    1866.9724   -13950.242 
98680000    302.09402    298.32402   -93.897128    21.376007   -15869.234    1864.9042    -14004.33 
98690000    295.70955    297.91777    513.66537    3.9279449   -15790.242    1825.4912   -13964.751 
98700000    303.26551    297.89638    10.401425    39.650345    -15768.11    1872.1361   -13895.974 
98710000    298.02333    298.15097    -296.2663    49.824518   -15773.391    1839.7748   -13933.616 
98720000    297.41109    297.77091    193.18793    4.7707296   -15756.924    1835.9953   -13920.929 
98730000    299.17544    298.74604     215.6848   -24.194873   -15703.846     1846.887   -13856.959 
98740000    305.19944    298.01783    195.80036    55.548239    -15867.38    1884.0748   -13983.305 
98750000    298.71453    298.54903    502.24785   -92.653047   -15805.872    1844.0417    -13961.83 
98760000    299.83949    297.86544    591.18855   -104.22095   -15763.948    1850.9864   -13912.962 
98770000     296.8168    297.78065   -210.32534    5.8699943   -15790.311    1832.3266   -13957.984 
98780000    304.41281    298.21521    63.797759   -16.728836   -15737.003    1879.2187   -13857.784 
98790000    304.13495    298.57611   -214.19164    42.943438   -15791.332    1877.5034   -13913.829 
98800000     293.8027    297.73543    341.87792    54.039877   -15700.808    1813.7198   -13887.089 
98810000     308.5734    297.81316    227.62524   -22.643536   -15789.571    1904.9031   -13884.668 
98820000    295.83274    297.69648    -338.2366    110.43528   -15830.155    1826.2517   -14003.903 
98830000    295.93727    298.00929   -303.36508   -39.381164   -15788.373     1826.897   -13961.476 
98840000    296.64221    297.84008   -275.93952   -6.6071346   -15731.956    1831.2488   -13900.708 
98850000    300.66278     298.3339   -497.90609    36.713916   -15870.333    1856.0688   -14014.264 
98860000    293.80676    298.20971   -243.38415    8.9643282   -15748.639    1813.7448   -13934.894 
98870000    293.23704    298.03569    324.81862    -4.075166   -15762.604    1810.2278   -13952.376 
98880000    306.53423    297.79493   -54.750218   -45.218252   -15763.064    1892.3148   -13870.749 
98890000    302.88957    298.40919    780.77979    47.114092   -15728.592    1869.8153   -13858.777 
98900000    300.31933    298.09743    492.22699    130.92831   -15861.079    1853.9486   -14007.131 
98910000      312.107     297.8589    178.70239    101.56328   -15757.238    1926.7169   -13830.521 
98920000    295.57175    297.89337    442.93681    133.98293   -15754.936    1824.6406   -13930.296 
98930000    287.60643    297.92417   -754.78786    4.4691251   -15750.514    1775.4686   -13975.045 
98940000    291.61554    297.94608    1240.8031   -20.463286   -15709.699    1800.2178   -13909.481 
98950000    296.36995     297.6244    169.62478    20.475553   -15743.579     1829.568   -13914.011 
98960000    300.09787    298.25136   -181.11346   -10.775659   -15783.633    1852.5815   -13931.051 
98970000    297.89664    298.40391   -250.21721     97.87634   -15830.095    1838.9927   -13991.102 
98980000    299.52885    297.86162   -68.170203   -107.71051   -15744.457    1849.0688   -13895.388 
98990000    301.85251    297.59438    -13.23792   -95.954526   -15751.602    1863.4133   -13888.189 
99000000    299.93266    298.41416   -395.48312    20.606405   -15703.336    1851.5616   -13851.775 
99010000    296.44666    297.92448    206.64665   -29.986449   -15806.936    1830.0416   -13976.895 
99020000    309.08961     298.0694   -745.42831    80.563801   -15784.812    1908.0898   -13876.722 
99030000    297.02133    298.12812     630.9781    2.6280043   -15740.567    1833.5892   -13906.978 
99040000    290.57683    297.94201     171.5278    -70.35043   -15806.656    1793.8056   -14012.851 
99050000    297.90584    297.91983   -27.937861   -13.273722   -15826.973    1839.0495   -13987.923 
99060000    293.45724    297.47343    773.30687    -51.16145   -15703.652    1811.5871   -13892.065 
99070000     297.4311     298.1107    360.12382    46.786006    -15828.78    1836.1188   -13992.661 
99080000    294.78475    298.11084    122.03319     18.73939   -15800.906    1819.7822   -13981.124 
99090000    300.29502    297.97543   -195.03292   -40.638056   -15765.258    1853.7985    -13911.46 
99100000    295.49741    297.46741   -10.374237    54.981473   -15829.602    1824.1816   -14005.421 
99110000    309.34937    298.24507    5.7276314   -14.681589   -15683.276    1909.6933   -13773.582 
99120000     303.4233    298.25094   -145.29348  -0.89767767   -15835.208    1873.1102   -13962.098 
99130000    303.28208    298.63129    332.85069   -37.794951   -15767.319    1872.2384   -13895.081 
99140000    302.48105    298.31337    53.658849    -77.73235   -15868.883    1867.2934    -14001.59 
99150000    288.95619    297.94804   -252.18511    12.961696   -15864.561     1783.801    -14080.76 
99160000    298.91321     297.4888   -64.554112   -55.312107   -15768.949    1845.2682    -13923.68 
99170000    295.57341    298.12115   -132.54862   -42.868039   -15779.615    1824.6508   -13954.964 
99180000    295.03203    298.54245   -792.10656     -71.7772   -15736.233    1821.3087   -13914.924 
99190000    297.89245    298.27846    68.099465    19.679946   -15844.775    1838.9668   -14005.808 
99200000    294.57742    298.00997   -454.73545   -75.276526   -15756.155    1818.5023   -13937.653 
99210000    302.69221    297.79867    -379.9164   -20.165723   -15708.226     1868.597   -13839.629 
99220000    298.56452    298.11046    158.96283    23.653631   -15763.419    1843.1157   -13920.304 
99230000    297.37422    297.45497    64.109709    78.833479   -15870.658    1835.7677    -14034.89 
99240000    310.03026    298.23925    634.20979    89.589132   -15750.348    1913.8966   -13836.452 
99250000    302.74663    297.91492   -359.10735   -89.799112   -15817.304    1868.9329   -13948.371 
99260000    297.80362     298.4059   -224.56531   -64.978072   -15774.545    1838.4185   -13936.126 
99270000    298.57306    298.19056    33.457277    14.884399   -15837.347    1843.1684   -13994.179 
99280000    295.13832    297.86223    980.71695     -65.9839   -15772.741    1821.9649   -13950.776 
99290000     301.7437    298.31487    110.76978    47.186044   -15764.004    1862.7416   -13901.262 
99300000    291.46582    297.57333   -3.5355539    34.880113   -15801.695    1799.2936   -14002.401 
99310000    302.94279    298.08985   -31.217866    15.608571   -15832.764    1870.1439    -13962.62 
99320000    288.29577    297.64853     84.94199    -7.760414   -15726.647     1779.724   -13946.923 
99330000    301.07635    298.04801   -99.856559   -90.874837    -15838.74    1858.6219   -13980.118 
99340000    298.86568    297.97025   -231.29706    17.939597   -15807.984    1844.9748    -13963.01 
99350000    300.24542    298.44373   -142.98911   -19.580691   -15897.541    1853.4923   -14044.049 
99360000    298.65026    298.12529    446.95245     9.497605   -15718.359     1843.645   -13874.714 
99370000    298.54001    298.17378    191.21911    55.743324    -15760.26    1842.9644   -13917.296 
99380000    298.48098    298.29585    470.95294      12.5141   -15800.863       1842.6   -13958.263 
99390000    302.48319    297.75575    698.67428   -5.3081809   -15685.764    1867.3066   -13818.457 
99400000    299.89854    297.95326    181.83793   -72.875312   -15752.166    1851.3509   -13900.815 
99410000    304.51631    298.30204    156.24491   -53.766639   -15780.555    1879.8577   -13900.698 
99420000    299.30371    298.45933     -161.545    87.749177   -15743.805    1847.6789   -13896.126 
99430000    300.12996    297.79209    159.71227    28.941148   -15783.223    1852.7796   -13930.443 
99440000    293.87547     297.8679   -620.99018   -45.841626   -15739.699     1814.169   -13925.531 
99450000    293.87029    298.06466   -410.01642   -95.284879   -15847.441     1814.137   -14033.304 
99460000    302.74825    298.02986    -23.26966    10.730567   -15822.362    1868.9429   -13953.419 
99470000    281.76957    298.05705   -161.47983    104.48242   -15772.275    1739.4362   -14032.839 
99480000    294.30199    297.83924    377.95357    18.413104   -15806.759     1816.802   -13989.957 
99490000    300.08207    297.98001   -672.72946   -13.229493   -15833.246    1852.4839   -13980.762 
99500000    289.93333    297.94636    -846.6289   -34.974211   -15747.451    1789.8331   -13957.618 
99510000    309.72599    298.44964    412.10924   -30.617065   -15802.529    1912.0183   -13890.511 
99520000    299.10221    297.61362   -390.62014   -14.443744   -15839.228     1846.435   -13992.793 
99530000    293.59074    297.73875   -548.96328    2.8690276   -15851.518    1812.4113   -14039.107 
99540000    296.63141    297.73595    61.491297   -44.976159    -15752.86    1831.1821   -13921.678 
99550000    302.23463    298.11136   -201.98554   -15.111505   -15699.257    1865.7722   -13833.484 
99560000    291.44015     297.9205     1138.998    85.126538   -15736.034    1799.1352   -13936.899 
99570000    304.96519    298.03713    365.53609    79.829925   -15894.531    1882.6287   -14011.902 
99580000    302.42374    297.70915    572.37475    114.67953   -15770.769    1866.9396   -13903.829 
99590000    300.41607    297.94961   -369.66706     69.47435   -15846.493    1854.5458   -13991.947 
99600000    294.64797    297.45848    738.30073     58.81551   -15803.322    1818.9378   -13984.384 
99610000     302.6649    298.13161    340.23136    66.822112   -15771.055    1868.4284   -13902.627 
99620000    301.02564    297.91787   -493.60979   -36.681041   -15755.161    1858.3088   -13896.852 
99630000    303.97534    297.99761    549.52127   -37.536337   -15838.964    1876.5181   -13962.446 
99640000    305.04152    297.78803   -174.44258   -51.799385   -15756.394    1883.0999   -13873.294 
99650000    297.79574    297.70972   -768.14347   -49.300733   -15708.372    1838.3698   -13870.002 
99660000    293.73144    298.13621   -142.46051    25.496957   -15838.381    1813.2798   -14025.101 
99670000    294.14849    298.32799    343.40904   -39.572543    -15938.88    1815.8544   -14123.026 
99680000    295.65078    298.08609    526.10859    43.251236   -15691.342    1825.1284   -13866.214 
99690000    293.44384    298.26882    438.18264     61.41917   -15705.575    1811.5044   -13894.071 
99700000     302.5458    298.07235    552.68315   -16.261348   -15838.645    1867.6931   -13970.952 
99710000    297.55272     298.6753    381.16044    85.767186   -15731.977    1836.8696   -13895.107 
99720000    292.49848    298.24444    206.27438    132.85983   -15773.415    1805.6685   -13967.746 
99730000    306.58536    297.87469   -328.96916    28.347352   -15763.991    1892.6304    -13871.36 
99740000    305.98885    297.70639     59.76748    26.596019   -15777.848     1888.948     -13888.9 
99750000    297.75876    298.13888   -436.05079   -13.684809   -15748.854    1838.1416   -13910.713 
99760000    308.25642    297.86476    211.10008   -68.244573   -15877.148    1902.9463   -13974.202 
99770000    304.25328    298.01294    36.228539    54.360826    -15707.38    1878.2339   -13829.147 
99780000    293.44565    298.19454   -234.10458   -32.057592   -15842.017    1811.5156   -14030.501 
99790000    292.34081    297.94661   -175.18672   -28.526317   -15776.401    1804.6952   -13971.706 
99800000    294.05277    297.82482   -103.10845    4.4393697    -15825.85    1815.2635   -14010.586 
99810000    302.04249    297.40699    84.346703   -1.8056031   -15834.622    1864.5861   -13970.036 
99820000    292.45275    297.95248    40.292758    91.296985   -15717.033    1805.3861   -13911.647 
99830000    299.31624    297.97709     248.6744    30.908942   -15833.972    1847.7562   -13986.216 
99840000    296.11906    298.13816    73.472298    4.5061192   -15573.016    1828.0192   -13744.997 
99850000    299.70268    297.97312   -17.099558    53.096016   -15773.725    1850.1419   -13923.583 
99860000    311.33084    297.74282    203.04143    27.969544   -15796.602    1921.9255   -13874.676 
99870000    294.54485    297.80585    542.89443   -14.208352   -15822.927    1818.3013   -14004.626 
99880000    302.56333    297.96111   -425.05001   -69.357137   -15740.352    1867.8014   -13872.551 
99890000     291.8822    297.67423   -193.97172    1.2081526   -15738.629     1801.864   -13936.765 
99900000    309.16607    297.91273   -434.78479   -30.640461   -15698.747    1908.5618   -13790.185 
99910000    301.14148    298.06925     32.97118   -35.461167   -15749.578    1859.0239   -13890.554 
99920000    304.88842    297.60628   -121.45943    -12.84613   -15763.547    1882.1548   -13881.392 
99930000    298.45747    298.07953   -115.02972    25.133975   -15812.659    1842.4548   -13970.205 
99940000     305.8785    297.98009     12.35828     8.990139   -15707.678    1888.2668   -13819.411 
99950000    299.25202    298.04596    239.42204     26.13396    -15756.24    1847.3598    -13908.88 
99960000    295.46166     298.0838    -462.2293    91.650391    -15758.69     1823.961   -13934.729 
99970000    308.25882    298.72141    376.21635    39.710413   -15800.096    1902.9611   -13897.135 
99980000    294.07317    298.43006    93.321085   -49.942005   -15747.714    1815.3894   -13932.325 
99990000     298.4828     297.8544    107.36575    26.239583   -15798.781    1842.6112    -13956.17 
100000000    305.93771    297.86908    61.721552   -88.303231   -15723.366    1888.6323   -13834.734 
Loop time of 92761.7 on 128 procs for 100000000 steps with 3072 atoms

Performance: 186.284 ns/day, 0.129 hours/ns, 1078.032 timesteps/s
99.3% CPU use with 128 MPI tasks x no OpenMP threads

MPI task timing breakdown:
Section |  min time  |  avg time  |  max time  |%varavg| %total
---------------------------------------------------------------
Pair    | 19908      | 23753      | 27005      |1152.9 | 25.61
Bond    | 8.6488     | 10.016     | 16.023     |  35.0 |  0.01
Kspace  | 39398      | 42545      | 46458      | 875.1 | 45.87
Neigh   | 2927.7     | 2953.6     | 2976.5     |  22.1 |  3.18
Comm    | 11533      | 12389      | 13114      | 340.7 | 13.36
Output  | 4.0152     | 86.42      | 102.39     | 172.3 |  0.09
Modify  | 8883.7     | 9520.3     | 10119      | 324.6 | 10.26
Other   |            | 1505       |            |       |  1.62

Nlocal:    24 ave 34 max 16 min
Histogram: 4 8 15 28 17 28 16 9 2 1
Nghost:    2936.08 ave 2966 max 2913 min
Histogram: 3 5 16 35 28 17 18 3 1 2
Neighs:    9211.09 ave 12352 max 5280 min
Histogram: 1 3 8 19 23 20 19 20 8 7

Total # of neighbors = 1179019
Ave neighs/atom = 383.795
Ave special neighs/atom = 1.95312
Neighbor list builds = 8671269
Dangerous builds = 0

JOB STATISTICS
==============
Job ID: 2423574
Cluster: snellius
User/Group: phabibi/phabibi
State: COMPLETED (exit code 0)
Nodes: 1
Cores per node: 128
CPU Utilized: 152-03:27:30
CPU Efficiency: 99.30% of 153-05:05:04 core-walltime
Job Wall-clock time: 1-04:43:38
Memory Utilized: 20.78 GB (estimated maximum)
Memory Efficiency: 9.28% of 224.00 GB (1.75 GB/core)
