3072
Atoms. Timestep: 0
Ow 4.58484 8.96665 9.47855
H 3.72788 8.54039 9.46589
H 4.61329 9.42339 10.3193
Ow 14.7638 17.2533 30.635
H 14.8878 16.3124 30.5102
H 14.9203 17.3941 31.5688
Ow 26.9312 28.322 23.2406
H 26.0182 28.1593 23.0035
H 27.3259 28.6786 22.4448
Ow 31.1154 3.49086 19.5822
H 0.165737 3.60761 20.3642
H 0.230138 3.14906 18.9229
Ow 10.7377 17.1904 8.169
H 11.3634 17.1089 7.44924
H 10.8628 18.0812 8.496
Ow 8.97413 6.78122 30.0246
H 8.1111 7.11032 29.7734
H 8.79599 6.14393 30.7162
Ow 22.8871 28.0096 16.552
H 23.0112 27.3663 17.2498
H 22.031 28.3976 16.7327
Ow 13.876 18.3499 19.5023
H 13.1566 17.7244 19.4158
H 14.256 18.1614 20.3604
Ow 9.75149 31.3185 12.9228
H 10.2708 30.5654 13.2045
H 10.3628 0.367922 12.4203
Ow 14.979 0.69654 3.21479
H 15.5916 1.42849 3.14315
H 15.4365 31.4492 2.80923
Ow 25.227 18.7888 27.6066
H 26.1285 18.9881 27.8591
H 25.2023 18.9439 26.6623
Ow 9.92959 19.6933 31.4689
H 10.8542 19.7079 31.2216
H 9.52431 19.089 30.8469
Ow 27.6404 5.1805 6.20855
H 27.0338 5.92079 6.22594
H 27.3585 4.62218 6.93314
Ow 7.88456 12.4865 14.509
H 8.00015 13.2791 13.9849
H 8.20367 12.7255 15.3792
Ow 28.4789 10.4101 16.4087
H 29.0002 11.2 16.552
H 29.0173 9.86864 15.8315
Ow 13.871 11.9878 24.5132
H 13.1287 11.3994 24.6507
H 13.6245 12.7947 24.9654
Ow 8.30956 2.26866 14.9356
H 9.21174 2.32599 15.2503
H 7.99695 3.17338 14.937
Ow 11.6354 24.0802 22.8096
H 12.2538 24.6401 22.3401
H 11.0207 24.6905 23.217
Ow 25.8624 14.0681 1.62546
H 25.6065 14.1129 2.54674
H 25.999 13.1353 1.45946
Ow 4.60206 10.3701 31.6288
H 3.69983 10.0504 31.63
H 4.54057 11.2634 0.477792
Ow 19.8143 16.1248 11.7283
H 20.7623 16.2435 11.7873
H 19.7016 15.3887 11.1269
Ow 8.59709 4.66257 7.79822
H 8.09003 4.79756 6.99766
H 9.06612 5.48697 7.9271
Ow 31.0302 9.74251 19.4307
H 31.1199 9.07523 20.1111
H 30.3345 10.3178 19.7489
Ow 5.89507 18.174 9.12766
H 5.55448 17.7848 9.93314
H 6.5783 18.7762 9.42229
Ow 23.3101 30.6452 20.7305
H 22.6891 29.9234 20.6324
H 23.4466 30.9672 19.8395
Ow 18.5405 16.2113 29.6606
H 17.9245 15.8122 30.2751
H 18.9715 16.9003 30.1663
Ow 3.95109 7.25703 26.585
H 4.42156 7.52243 25.7948
H 3.41582 6.51364 26.3073
Ow 9.81624 30.3949 31.5924
H 10.4071 29.8551 31.0672
H 8.95355 30.0002 31.4648
Ow 12.7064 8.69051 4.37884
H 12.014 8.93178 3.76349
H 12.7384 7.73458 4.34124
Ow 25.6657 30.1755 0.204762
H 26.2141 29.7228 31.0531
H 25.7038 31.0961 31.4345
Ow 15.8522 0.379972 26.915
H 16.7822 31.6429 26.9005
H 15.7825 1.14508 26.344
Ow 29.4548 12.8708 5.24663
H 29.0977 13.2467 4.44197
H 29.2545 11.9369 5.18478
Ow 26.4807 12.3556 15.9075
H 27.182 11.7072 15.9704
H 26.0602 12.3386 16.7672
Ow 6.13003 9.87029 15.3515
H 5.54471 10.6258 15.2985
H 6.40242 9.71382 14.4473
Ow 8.85724 25.9397 26.2053
H 8.69427 26.5479 25.4843
H 9.04434 25.1044 25.777
Ow 20.4431 9.34218 20.9486
H 19.5076 9.53189 20.8774
H 20.8602 10.2028 20.9883
Ow 0.969197 24.357 20.813
H 0.339214 23.9181 21.3845
H 1.0957 25.218 21.2117
Ow 18.9321 26.7674 21.501
H 19.779 26.6001 21.9146
H 18.7861 27.7054 21.6241
Ow 22.653 20.2371 11.679
H 23.2768 19.6658 11.231
H 21.8507 20.169 11.1614
Ow 26.0179 18.719 4.16419
H 25.7257 18.8689 3.26507
H 26.6613 19.4091 4.32565
Ow 7.17306 3.37662 3.23153
H 6.91556 4.11491 3.78366
H 7.46632 3.7791 2.41407
Ow 12.0577 22.8633 1.4814
H 12.0766 22.9316 2.43597
H 11.4764 23.5705 1.20169
Ow 6.17528 7.89022 30.1017
H 6.22016 7.55378 30.9967
H 5.36274 7.52715 29.7493
Ow 24.2048 27.3801 25.6237
H 23.9076 27.9839 26.3045
H 23.4798 26.7645 25.5159
Ow 6.07902 30.3823 7.68098
H 6.70839 30.2724 8.39375
H 5.83814 31.3081 7.71415
Ow 16.0411 13.302 22.9904
H 16.674 12.7708 22.5073
H 16.5231 14.0948 23.2258
Ow 30.7703 25.167 27.1316
H 31.1417 24.8669 26.302
H 30.1275 24.4967 27.3632
Ow 23.0956 3.55461 28.4125
H 22.7903 4.33251 28.8793
H 23.3783 2.9556 29.1035
Ow 6.31125 28.21 27.4559
H 5.78707 27.5051 27.0755
H 6.98668 27.7598 27.9632
Ow 25.8187 22.3465 21.9292
H 25.0969 22.3429 22.5579
H 26.3522 21.5897 22.172
Ow 2.50188 10.9482 5.85322
H 3.04821 10.8926 6.63723
H 1.75968 10.3722 6.03658
Ow 11.3863 30.934 23.4748
H 11.9142 30.5622 22.7681
H 11.4771 0.391869 23.3695
Ow 17.818 25.6128 11.0705
H 17.4108 24.9966 10.4616
H 17.085 25.9867 11.5595
Ow 25.2264 2.04192 9.86663
H 24.5879 2.7314 9.6846
H 25.8622 2.10943 9.15423
Ow 18.2993 13.1921 2.33797
H 18.1104 13.7294 3.10731
H 18.097 12.2981 2.61401
Ow 1.83345 19.5046 29.9107
H 1.21492 18.9901 30.4292
H 2.43871 18.8579 29.5479
Ow 18.4099 6.9391 28.4282
H 18.1163 6.82286 27.5246
H 17.9497 7.72184 28.7312
Ow 4.57513 3.77725 28.9102
H 4.63484 2.89875 29.2856
H 5.41811 4.18275 29.1131
Ow 22.5526 17.2528 27.0103
H 23.4906 17.4304 27.0807
H 22.4896 16.5482 26.3654
Ow 20.0133 6.74855 19.3298
H 19.9927 7.55152 19.8504
H 19.399 6.16118 19.7701
Ow 8.98354 21.2967 19.697
H 8.04486 21.4662 19.7768
H 9.32808 21.4339 20.5795
Ow 20.2783 13.7853 31.4074
H 19.3678 13.5005 31.3292
H 20.6442 13.2325 0.608792
Ow 19.5595 12.4044 12.1371
H 18.6248 12.2316 12.0242
H 19.9637 12.0707 11.3361
Ow 11.2784 15.8981 29.5733
H 11.6102 15.4487 30.3506
H 10.7973 15.224 29.0933
Ow 21.003 28.9608 19.6411
H 20.7065 28.2584 19.0623
H 20.2848 29.0788 20.2628
Ow 18.052 18.9469 14.9222
H 18.666 18.2148 14.8653
H 17.1925 18.5336 15.0031
Ow 13.1018 9.73643 21.5068
H 12.625 10.53 21.2638
H 12.7188 9.4731 22.3436
Ow 15.3469 23.3677 13.3936
H 16.2537 23.3198 13.0907
H 14.8229 23.276 12.5978
Ow 22.432 19.8978 20.9532
H 22.8919 19.1099 20.6633
H 21.504 19.6794 20.8671
Ow 4.02603 15.6182 21.502
H 3.13198 15.8049 21.7884
H 4.50368 16.4325 21.6601
Ow 20.6665 12.4143 26.5331
H 19.9244 12.2245 27.1071
H 20.9809 13.2708 26.8226
Ow 20.5924 16.4008 2.34131
H 21.3147 16.0474 2.86052
H 20.975 16.5672 1.47982
Ow 23.5505 22.1167 23.7869
H 23.0626 22.6955 24.3727
H 23.1352 21.261 23.8944
Ow 3.95391 1.2433 9.83376
H 4.15423 0.3605 10.1448
H 3.13453 1.14659 9.34849
Ow 31.5533 5.73456 7.36614
H 30.8126 5.89112 7.95192
H 31.1523 5.54134 6.5187
Ow 5.70175 12.7094 17.2764
H 5.88298 13.645 17.3657
H 5.5093 12.5898 16.3464
Ow 29.7103 18.6769 19.0697
H 30.6256 18.3987 19.1008
H 29.6315 19.1509 18.2418
Ow 8.5776 12.9672 30.1891
H 8.79515 13.4972 29.4223
H 9.14081 13.308 30.884
Ow 1.44151 13.1021 24.3335
H 2.17909 13.6976 24.4659
H 1.74759 12.4851 23.6687
Ow 15.7158 24.5759 5.87277
H 16.414 24.0758 5.45013
H 16.1249 24.945 6.65547
Ow 0.65396 12.8948 14.057
H 0.740223 12.1281 13.4904
H 31.3934 13.3724 13.7019
Ow 18.6486 2.79559 28.463
H 19.0985 2.52794 29.2644
H 17.8026 3.12849 28.7624
Ow 7.41296 8.10252 26.33
H 6.78836 8.39112 25.6646
H 7.95327 8.8736 26.5025
Ow 15.3704 18.545 15.5093
H 14.8935 19.3744 15.5387
H 14.7688 17.9374 15.0791
Ow 14.6205 19.542 24.8444
H 14.2809 18.6575 24.7079
H 13.8584 20.0519 25.1189
Ow 22.8648 27.8386 4.62395
H 23.7873 27.6167 4.4974
H 22.5562 28.0876 3.75275
Ow 6.731 22.3808 11.6412
H 6.01763 22.1715 12.2441
H 7.43349 22.706 12.2042
Ow 12.7406 23.3716 25.3822
H 12.3787 24.1242 25.85
H 12.1776 23.2729 24.6144
Ow 23.0731 10.906 25.8344
H 22.2368 11.2961 26.0887
H 23.4337 10.5583 26.65
Ow 5.81814 19.7782 0.438464
H 5.16954 19.0842 0.556951
H 6.65486 19.3628 0.64722
Ow 28.4706 2.96482 11.5193
H 28.5353 2.01029 11.4888
H 29.3178 3.27316 11.1975
Ow 22.5331 5.05599 13.7067
H 21.9654 4.35477 14.0265
H 22.5886 5.67183 14.4374
Ow 12.6739 0.358575 19.5537
H 12.025 0.382504 18.8504
H 12.4376 31.0785 20.0721
Ow 0.784288 15.1418 2.16944
H 0.279961 14.4074 1.81935
H 31.6143 15.7942 2.40638
Ow 24.1713 27.9846 22.8001
H 24.2492 27.8103 23.7381
H 23.5398 28.7015 22.7409
Ow 6.50207 26.3272 0.64731
H 6.13069 25.6078 1.15787
H 6.06445 26.2697 31.2871
Ow 19.1001 23.707 31.3769
H 18.8047 24.1789 30.5983
H 19.4332 22.8748 31.0412
Ow 5.84668 9.84503 20.5652
H 6.07984 10.7293 20.2825
H 4.95773 9.71415 20.2353
Ow 2.43207 3.70985 26.2538
H 1.86612 2.95178 26.108
H 2.21911 4.3094 25.5387
Ow 23.5337 7.70144 21.687
H 23.9878 6.90241 21.4196
H 22.6737 7.40156 21.9815
Ow 4.22139 9.32352 4.25915
H 3.53091 9.68244 4.81651
H 3.75772 8.97126 3.49944
Ow 0.720308 3.44758 30.5507
H 0.586445 4.04023 29.811
H 1.33166 3.91175 31.1225
Ow 9.00318 12.6249 18.4172
H 9.02713 13.1377 17.6093
H 9.87638 12.2382 18.482
Ow 1.45126 6.71755 18.7088
H 1.80086 5.84657 18.8969
H 0.538533 6.67662 18.9942
Ow 25.2727 11.167 9.47829
H 24.8822 11.973 9.81605
H 25.815 11.4528 8.74308
Ow 30.0085 26.8861 13.7668
H 29.6679 26.9436 14.6595
H 30.3792 27.7517 13.595
Ow 10.3064 26.3485 23.3329
H 10.1265 26.3982 22.394
H 11.0277 26.9623 23.4718
Ow 14.5716 24.3561 16.0942
H 14.9932 25.0946 16.5337
H 13.9229 24.0409 16.7235
Ow 21.5232 6.37902 0.475078
H 21.8469 7.27073 0.347352
H 20.8053 6.29217 31.3371
Ow 28.3826 14.3646 21.5204
H 29.3364 14.3283 21.5924
H 28.0947 14.7595 22.3435
Ow 3.94674 30.3519 27.7779
H 3.04857 30.2245 28.0833
H 4.41854 29.5803 28.0913
Ow 24.5573 31.437 11.2307
H 24.7 0.678864 10.6295
H 23.7447 31.032 10.9274
Ow 7.0316 25.0655 9.54527
H 6.80451 24.1506 9.37888
H 7.97789 25.0555 9.689
Ow 2.29189 16.2026 17.9895
H 1.85478 16.8527 18.5395
H 2.73712 16.7177 17.3168
Ow 17.104 2.80836 15.127
H 16.9397 3.15843 16.0026
H 17.5931 3.4993 14.6801
Ow 12.8879 14.1538 11.2844
H 12.5386 13.5284 11.9194
H 12.2773 14.8905 11.3123
Ow 10.1637 24.4473 31.6471
H 10.3438 24.8774 30.8111
H 9.92615 25.1617 0.749086
Ow 22.9419 3.43776 4.95804
H 22.8665 3.48774 5.91095
H 23.2438 4.30726 4.69526
Ow 28.8264 16.6814 28.6242
H 29.5179 16.8479 27.9837
H 29.289 16.3643 29.3999
Ow 16.9121 2.66289 3.08832
H 17.1603 3.49925 2.69442
H 17.5019 2.56529 3.83587
Ow 14.2957 13.4916 28.2876
H 13.9123 12.6403 28.0767
H 13.7631 14.1216 27.8021
Ow 26.8914 16.5954 25.2896
H 27.7846 16.4011 25.0056
H 26.4989 15.7375 25.4513
Ow 12.3251 21.6134 13.4657
H 12.0892 22.4835 13.1439
H 11.9563 21.0106 12.82
Ow 26.7933 29.6628 25.587
H 27.6319 29.7698 26.036
H 26.9526 28.9738 24.9419
Ow 25.9914 12.0903 28.288
H 26.6196 12.452 28.9132
H 25.3622 12.7971 28.1438
Ow 30.9199 17.2614 27.1845
H 30.6038 16.8661 26.372
H 30.5923 18.1603 27.1573
Ow 31.1966 5.28503 24.4345
H 30.7259 6.06652 24.1448
H 30.5155 4.7102 24.7836
Ow 18.6535 8.11042 15.8206
H 17.7368 8.20626 15.5621
H 19.1502 8.39173 15.0523
Ow 16.4227 22.6507 29.5135
H 16.4207 23.5759 29.7588
H 16.3204 22.6545 28.5618
Ow 20.4052 27.8108 29.2973
H 19.6286 27.5809 29.8075
H 20.3517 28.7608 29.1934
Ow 17.8923 11.0714 14.4261
H 17.6876 11.8861 13.9672
H 17.2609 10.4383 14.0844
Ow 21.8013 25.9498 11.3451
H 21.137 25.3271 11.6402
H 21.4911 26.7989 11.6599
Ow 2.17201 17.9129 2.11545
H 1.59701 17.8277 1.35495
H 2.37044 18.8481 2.16277
Ow 26.8802 17.222 18.0942
H 27.3217 17.6859 17.3828
H 27.1989 16.3218 18.028
Ow 4.9563 26.0379 26.6714
H 4.21603 26.1757 26.0804
H 4.88273 25.1217 26.9386
Ow 30.0573 1.51211 29.8259
H 30.344 2.28484 30.3126
H 29.6036 0.974356 30.4749
Ow 2.54631 13.061 29.4455
H 1.85002 13.6994 29.2911
H 3.03566 13.4146 30.1884
Ow 18.6189 0.337749 26.6667
H 18.4001 1.1561 27.1125
H 19.1199 0.609774 25.8978
Ow 7.14837 30.7917 27.0996
H 6.47956 31.318 27.5377
H 6.76549 29.9163 27.0423
Ow 7.56423 24.7555 28.2453
H 7.54689 23.8688 27.8853
H 8.04144 25.2697 27.5941
Ow 13.9815 5.9106 23.7833
H 13.6938 5.20951 23.1985
H 13.7221 5.6164 24.6565
Ow 27.134 27.716 18.6397
H 27.1364 28.482 19.2137
H 28.0341 27.3918 18.6684
Ow 2.70515 30.436 1.33355
H 3.41847 30.0963 0.793128
H 2.21884 31.0188 0.750433
Ow 5.05177 30.105 31.295
H 5.06193 30.9578 30.8603
H 4.63668 29.5183 30.6627
Ow 31.4637 1.12929 22.338
H 30.8948 0.565502 21.8138
H 30.9007 1.44941 23.0428
Ow 27.2886 13.5062 11.8507
H 27.1173 14.1566 12.5318
H 26.4215 13.2692 11.5217
Ow 20.9945 12.372 1.99351
H 21.7299 12.7728 2.45698
H 20.2172 12.7548 2.40032
Ow 24.1903 10.0324 23.338
H 23.6611 9.43979 22.8042
H 23.6557 10.1981 24.1145
Ow 18.3463 6.73325 25.701
H 18.6812 5.84734 25.5623
H 19.0901 7.30397 25.5077
Ow 16.3894 29.9915 7.71435
H 16.8384 29.5611 6.98672
H 16.2315 30.8834 7.405
Ow 27.8058 24.3218 22.0463
H 27.7008 24.8396 22.8446
H 27.117 23.6591 22.0979
Ow 6.79736 12.5235 11.3078
H 7.29578 12.0138 10.6691
H 6.24623 11.879 11.7517
Ow 10.0037 29.0939 7.6845
H 10.8128 28.5857 7.74214
H 10.1888 29.7664 7.02902
Ow 4.40918 26.4972 7.57524
H 3.82325 27.1524 7.95419
H 4.18943 26.4889 6.64365
Ow 9.02943 18.4947 5.26544
H 9.37176 17.6022 5.21486
H 9.59234 19.0012 4.67994
Ow 31.0597 14.3679 22.6443
H 0.21859 13.9002 23.1711
H 30.4791 14.7772 23.286
Ow 22.167 30.3544 10.4148
H 22.5409 29.7052 9.81895
H 21.8893 29.8478 11.178
Ow 15.7751 29.1511 10.3118
H 16.0402 29.4144 9.43054
H 16.5946 28.9233 10.7509
Ow 7.33726 0.763011 2.67847
H 7.43229 1.65667 3.00797
H 7.60637 0.815486 1.76137
Ow 2.54406 4.32648 11.2772
H 2.5508 4.28686 10.3208
H 2.38801 3.42348 11.5537
Ow 17.5276 14.803 4.55334
H 18.0659 14.5023 5.28547
H 16.6266 14.7008 4.86009
Ow 3.16766 28.9726 24.2111
H 3.14323 28.9898 23.2544
H 2.33388 29.3587 24.4794
Ow 1.79222 18.414 8.17589
H 2.50179 19.012 7.94125
H 1.7467 18.4586 9.13096
Ow 22.4177 17.8305 14.9309
H 22.9433 18.027 15.7063
H 21.541 18.1471 15.1487
Ow 18.3896 11.839 27.9109
H 18.238 12.2658 28.7542
H 17.7444 12.2325 27.3234
Ow 12.6059 1.33906 1.79463
H 13.3833 1.02808 2.25852
H 12.1694 1.91835 2.41924
Ow 19.6448 15.7056 16.9716
H 19.8626 14.8441 16.6159
H 20.4924 16.1123 17.1515
Ow 13.5814 5.56742 26.641
H 13.7052 4.62779 26.7751
H 12.9356 5.82095 27.3005
Ow 21.2902 19.6187 7.83895
H 21.0566 18.9427 8.47504
H 21.7199 19.1419 7.12885
Ow 7.802 8.67158 8.97036
H 8.45813 8.12852 9.40718
H 7.96664 9.55616 9.29691
Ow 8.14526 5.50435 26.6407
H 7.96563 6.44377 26.6788
H 8.92863 5.4317 26.0955
Ow 3.38491 5.41844 22.5124
H 3.48485 6.20909 21.9822
H 2.77586 4.87189 22.0158
Ow 17.598 0.697207 22.6751
H 17.7597 31.4539 22.0805
H 18.3838 0.742207 23.2197
Ow 11.0585 19.4479 23.6865
H 10.7729 18.5762 23.9599
H 11.5523 19.2969 22.8806
Ow 19.7376 16.8085 14.4939
H 19.5632 16.2227 15.2305
H 19.5418 16.2834 13.7179
Ow 16.5816 25.8975 8.2953
H 17.1237 25.1126 8.37523
H 17.1654 26.6176 8.53366
Ow 11.936 29.2216 30.4123
H 12.6137 29.8541 30.6508
H 11.9928 29.1571 29.459
Ow 6.74226 29.0052 16.4663
H 7.16173 28.2269 16.0995
H 6.2732 29.3952 15.7287
Ow 8.7451 1.59814 9.97051
H 7.98738 2.04813 9.59687
H 8.58901 0.671889 9.78633
Ow 23.655 8.30154 30.2814
H 23.6591 8.92144 31.0108
H 23.7757 8.84572 29.5033
Ow 19.3617 31.3474 18.1098
H 19.3703 31.2292 17.16
H 19.9742 30.6896 18.439
Ow 7.24411 0.585038 30.5217
H 7.63502 0.898511 31.3373
H 6.38218 1.00039 30.4935
Ow 16.2181 3.87035 28.4215
H 15.8928 4.49817 29.0667
H 15.6432 3.11071 28.5148
Ow 10.5937 26.1127 15.1916
H 10.927 26.9917 15.0112
H 10.6143 26.0394 16.1458
Ow 20.566 12.6484 16.9757
H 19.8041 12.094 17.144
H 21.2791 12.032 16.809
Ow 24.0523 31.1105 4.08525
H 24.3097 31.4535 4.94097
H 24.8794 30.9671 3.6254
Ow 22.3205 23.1247 28.9961
H 22.9087 23.8217 29.2867
H 22.8073 22.3167 29.1583
Ow 31.0933 30.4327 6.12619
H 30.2169 30.7848 6.28197
H 31.6484 30.8792 6.76544
Ow 26.7277 11.455 24.4146
H 27.4306 11.0471 23.9089
H 25.9226 11.1156 24.0236
Ow 23.8245 31.1492 25.9486
H 23.6338 31.5287 25.0907
H 23.1205 31.4675 26.5136
Ow 0.261356 22.5671 23.2719
H 0.474091 23.4532 23.5649
H 1.11002 22.1332 23.1838
Ow 30.5068 15.7506 30.5655
H 31.1088 15.1945 30.0709
H 30.1787 15.186 31.2654
Ow 9.97201 6.92567 9.9018
H 10.1388 6.18106 10.4797
H 10.5562 6.78654 9.15641
Ow 20.2826 15.3645 27.6827
H 20.8206 16.1477 27.567
H 19.7794 15.5345 28.4791
Ow 8.90477 26.2764 2.09399
H 8.4569 26.248 2.93947
H 8.19881 26.26 1.44778
Ow 20.2511 16.3369 23.1599
H 20.8943 15.9029 23.7205
H 20.0083 17.128 23.6409
Ow 18.2824 19.3317 18.3971
H 18.8739 18.9729 19.0587
H 17.5171 18.7573 18.4226
Ow 0.452472 11.1035 29.5975
H 0.633743 10.6832 30.4382
H 1.23714 11.6197 29.4131
Ow 14.1729 5.61011 15.8621
H 13.2253 5.65746 15.9889
H 14.5413 5.9552 16.6754
Ow 10.1018 8.72699 12.4407
H 10.2871 8.24791 11.633
H 10.472 8.18071 13.1341
Ow 29.5147 9.306 7.48994
H 28.7714 8.70287 7.49029
H 29.7493 9.39715 6.56644
Ow 15.4865 14.1731 30.6722
H 15.0159 13.8504 29.9038
H 15.0936 13.7044 31.4086
Ow 28.0733 20.5067 5.20757
H 27.4987 20.7696 5.92659
H 28.4673 19.686 5.50306
Ow 24.2889 9.91654 3.6393
H 23.6414 9.43294 4.15222
H 24.9926 10.1072 4.25956
Ow 28.7068 31.278 12.6409
H 28.3131 31.3886 11.7755
H 29.3203 30.551 12.5343
Ow 26.8369 18.4147 11.3463
H 27.5821 18.9203 11.0217
H 27.0354 17.5109 11.1017
Ow 13.0352 19.8701 2.13561
H 12.2039 20.0345 2.58076
H 13.685 20.3376 2.66048
Ow 25.0132 30.5783 28.5004
H 25.661 29.9303 28.7776
H 24.9892 30.5008 27.5467
Ow 16.0707 20.0641 12.683
H 15.7772 19.8675 13.5726
H 15.2704 20.0518 12.158
Ow 31.4106 21.8244 29.2956
H 0.665336 22.3932 29.0972
H 31.5234 21.5946 30.2179
Ow 31.3289 31.3475 28.1571
H 0.167803 0.404705 27.4429
H 30.7395 0.431966 28.6468
Ow 0.248289 21.9019 0.689317
H 0.908938 21.4266 1.19312
H 0.38946 22.8212 0.9156
Ow 24.7686 2.23169 2.45459
H 24.3411 3.01999 2.1199
H 25.42 2.55732 3.07585
Ow 14.9459 18.3977 21.9596
H 14.7978 18.9272 22.7431
H 15.897 18.3007 21.9118
Ow 24.3301 18.3632 10.2373
H 24.5096 18.0953 9.33607
H 25.1952 18.4941 10.6256
Ow 17.4088 18.8262 9.92896
H 17.0267 19.0564 9.08205
H 18.3004 18.5462 9.72187
Ow 22.7994 18.6555 5.56499
H 22.4554 17.7815 5.38022
H 22.6978 19.1325 4.74137
Ow 14.8433 29.9343 0.189849
H 15.0219 29.3134 30.9727
H 14.3537 29.427 0.837226
Ow 26.1158 25.4679 19.6107
H 26.4317 25.0492 20.4114
H 26.6684 26.2431 19.5111
Ow 21.5022 3.01298 16.9565
H 21.7435 2.48435 16.1959
H 22.1627 3.70514 16.987
Ow 30.6327 27.9314 26.7289
H 31.3735 28.1201 27.3049
H 30.2922 27.0935 27.0424
Ow 26.6023 26.0999 29.1514
H 27.3992 25.7837 29.5772
H 26.7463 25.9348 28.2196
Ow 14.2381 10.3016 17.2114
H 13.4067 10.4054 17.6742
H 14.5054 11.1948 16.9947
Ow 31.5396 17.7906 23.6237
H 30.9166 17.2976 24.1576
H 31.0363 18.5347 23.2932
Ow 18.773 26.8518 26.7204
H 19.2682 27.205 25.9814
H 19.1683 27.2594 27.491
Ow 22.978 27.9245 28.1512
H 23.5218 28.4915 28.6981
H 22.2508 27.6692 28.7189
Ow 5.04903 24.7821 2.47264
H 5.89609 24.8106 2.91753
H 4.45883 25.2676 3.04897
Ow 18.2548 14.9356 25.9392
H 19.1534 14.8276 26.2509
H 17.9359 15.7163 26.3921
Ow 12.1917 12.8677 8.30211
H 12.9144 13.4779 8.15529
H 11.6017 13.3326 8.89545
Ow 28.7484 29.2843 31.5138
H 28.9476 29.4666 0.943
H 29.4774 28.7417 31.2132
Ow 12.0876 19.9115 6.158
H 11.7923 19.7064 7.0451
H 12.8029 19.2966 5.99504
Ow 26.0273 27.7749 4.77032
H 26.1843 27.0029 5.31397
H 26.2335 27.4879 3.88073
Ow 27.2892 15.8755 10.444
H 26.6761 15.7207 9.72545
H 27.3586 15.0297 10.8868
Ow 14.3319 10.5394 7.40332
H 14.695 11.0011 8.15917
H 14.2179 11.2191 6.73906
Ow 17.5355 17.5145 21.6386
H 17.3818 16.9507 22.3968
H 17.4431 16.9326 20.8842
Ow 8.99118 31.0402 24.9472
H 8.5393 31.3749 24.1726
H 9.88659 30.8769 24.6508
Ow 4.86843 30.9188 24.6965
H 5.66463 30.4746 24.405
H 4.1782 30.2628 24.5989
Ow 3.36914 29.3009 6.99341
H 4.25071 29.3516 7.36284
H 2.89333 30.0205 7.40821
Ow 22.7594 11.4434 15.7606
H 23.4464 11.3377 16.4188
H 23.2047 11.8366 15.01
Ow 20.1637 2.83385 30.7834
H 19.8631 3.73807 30.6928
H 19.67 2.49023 31.528
Ow 12.3863 24.6248 3.66574
H 12.9414 24.3292 4.38731
H 11.5435 24.1984 3.82107
Ow 10.606 2.76138 3.14868
H 10.1082 2.37462 2.42842
H 10.0171 2.71121 3.90161
Ow 28.1698 13.2805 29.545
H 28.575 13.7469 28.814
H 28.4733 12.3775 29.4513
Ow 18.9897 29.7263 3.82944
H 18.2328 30.0975 3.37612
H 19.4235 29.1858 3.16924
Ow 7.72375 7.39967 23.2201
H 8.45887 7.99368 23.3716
H 7.68241 7.30699 22.2683
Ow 30.1905 27.4105 10.7362
H 30.8312 27.4592 10.0267
H 30.5915 27.8984 11.4555
Ow 10.1271 21.6759 22.1587
H 10.5239 22.5369 22.291
H 10.7108 21.07 22.6153
Ow 23.1332 7.65229 8.32736
H 23.7542 7.27519 8.95051
H 23.6433 7.78 7.52757
Ow 5.81086 4.03001 22.8805
H 4.9594 4.46298 22.819
H 6.25407 4.25477 22.0625
Ow 22.6677 16.1495 11.2292
H 23.2792 16.7143 10.7567
H 23.0704 15.2816 11.1993
Ow 17.3757 10.2557 30.9714
H 16.5666 9.97708 31.4003
H 17.2735 9.97613 30.0616
Ow 11.4486 12.013 20.9749
H 11.3876 12.9681 20.9917
H 11.6798 11.8032 20.07
Ow 2.8792 14.8207 0.213908
H 3.70751 15.3001 0.195956
H 2.48152 15.06 1.05106
Ow 25.4718 7.58722 26.5401
H 25.9882 7.69863 25.7418
H 24.6417 7.2175 26.2393
Ow 14.5697 28.0474 22.1166
H 14.017 28.1774 22.8872
H 14.0313 27.5273 21.5201
Ow 2.03282 24.5542 10.1434
H 2.85592 24.1135 9.93251
H 1.83854 24.2832 11.0407
Ow 3.89765 27.9736 29.7168
H 3.01733 28.0644 29.352
H 4.11012 27.0472 29.6031
Ow 31.1562 7.59102 21.2137
H 30.6106 6.95401 20.7525
H 30.7521 7.67235 22.0776
Ow 15.9667 17.1314 7.52914
H 15.8154 16.2213 7.78407
H 16.8048 17.1151 7.06712
Ow 27.2939 3.44988 8.41087
H 26.8891 3.93132 9.13238
H 28.2112 3.35777 8.66856
Ow 26.1185 10.0649 5.70191
H 26.923 10.1564 5.19136
H 26.0664 9.1304 5.90233
Ow 13.6911 23.6424 10.4511
H 13.7804 24.3859 9.85485
H 13.9525 22.8837 9.92945
Ow 20.4978 0.45965 5.03129
H 19.7238 0.948984 5.30984
H 20.1472 31.192 4.56171
Ow 7.90844 2.32602 24.6105
H 8.13641 2.68884 23.7545
H 7.35109 2.99217 25.0128
Ow 25.5799 21.6495 11.9347
H 26.0275 21.9993 12.7051
H 24.6502 21.6887 12.1589
Ow 26.9716 14.8855 14.066
H 27.6802 15.0254 14.6941
H 26.733 15.7652 13.7737
Ow 8.31885 28.5807 12.122
H 8.12611 27.6431 12.121
H 9.16309 28.6517 12.5675
Ow 23.5115 17.3488 18.8956
H 24.1853 17.7573 19.4391
H 23.1379 16.6643 19.4506
Ow 2.57963 20.7272 10.6483
H 2.13604 21.4868 11.0258
H 2.94987 21.0494 9.82653
Ow 21.3774 29.8945 14.9845
H 21.4009 29.3941 14.1689
H 22.2779 30.1944 15.1081
Ow 20.1898 1.50196 11.4564
H 20.3478 1.17259 10.5716
H 19.6892 2.30743 11.3267
Ow 13.0651 27.8906 26.7853
H 12.2166 27.461 26.8946
H 13.7022 27.2445 27.0903
Ow 4.96865 10.2414 12.0811
H 5.44525 9.46147 12.3652
H 4.96918 10.8153 12.8472
Ow 21.1444 24.3953 7.39448
H 21.6278 23.6559 7.76314
H 21.5306 24.5267 6.52858
Ow 24.3745 21.659 19.7099
H 23.7582 21.1072 20.1916
H 25.015 21.9329 20.3664
Ow 16.6323 26.3814 23.184
H 17.2981 26.2536 22.5084
H 15.9828 26.9538 22.7757
Ow 7.06605 8.57772 12.8471
H 6.89678 7.6417 12.9541
H 8.00055 8.63126 12.6469
Ow 17.6114 6.46012 2.11535
H 16.9972 6.32337 2.83668
H 18.445 6.12214 2.4426
Ow 6.11965 2.91121 9.45311
H 6.00561 3.86078 9.41371
H 5.23471 2.55906 9.35771
Ow 21.1344 26.7298 22.9477
H 21.6543 26.3304 22.2503
H 21.3669 27.6579 22.9188
Ow 7.76415 7.76361 20.2911
H 7.2527 6.97857 20.487
H 7.16189 8.4894 20.4546
Ow 18.071 5.04501 6.17739
H 17.9762 4.84755 7.10919
H 18.8421 5.61001 6.12903
Ow 5.62266 18.0012 5.30789
H 5.70688 17.4035 4.56496
H 6.47037 18.4429 5.35784
Ow 7.11614 4.52245 29.4644
H 7.53715 4.46999 30.3224
H 7.70959 5.05836 28.9382
Ow 5.911 27.8152 5.22291
H 6.16814 28.4626 4.56645
H 5.00921 27.5883 4.99586
Ow 25.2417 10.1473 13.7441
H 24.4721 9.58225 13.8124
H 25.5923 9.97095 12.8711
Ow 21.1442 19.4084 28.412
H 20.8805 20.0133 27.7186
H 21.4814 18.6427 27.947
Ow 6.31826 5.86394 9.32468
H 6.41231 5.85009 10.2771
H 7.21251 5.77926 8.99396
Ow 18.6243 23.6706 8.63431
H 19.3214 24.3239 8.5755
H 18.7196 23.1457 7.83952
Ow 13.7418 17.6778 5.9928
H 14.5902 17.5349 6.41231
H 13.3115 16.8234 6.02425
Ow 18.9448 13.9615 9.88196
H 19.1923 13.8263 8.96726
H 19.3792 13.2522 10.3555
Ow 24.9731 18.8587 1.60583
H 24.9142 19.5387 0.934703
H 24.6387 18.0702 1.17856
Ow 8.28168 16.9291 20.8377
H 8.2317 17.5771 21.5404
H 9.2062 16.9144 20.5901
Ow 4.82088 10.31 23.0553
H 3.89731 10.0961 22.9231
H 5.25122 10.0239 22.2496
Ow 14.9943 7.59427 6.25925
H 15.1577 6.94623 5.57399
H 14.2597 8.11189 5.92978
Ow 21.8359 12.0067 5.89765
H 21.6338 11.0723 5.94518
H 22.1824 12.2216 6.76364
Ow 7.06731 21.7865 22.6179
H 6.46555 21.4668 21.9457
H 6.49801 22.1463 23.2981
Ow 8.99706 3.24645 22.052
H 8.66291 3.53149 21.2015
H 9.17121 4.0595 22.5261
Ow 25.5591 29.3939 17.1771
H 24.7824 28.8997 16.9151
H 26.1116 28.7532 17.6248
Ow 15.803 20.6271 1.31027
H 16.3419 21.297 1.73093
H 16.1186 19.8007 1.67594
Ow 6.09898 20.0468 25.9983
H 6.87231 20.608 26.0556
H 5.80598 19.9487 26.9042
Ow 27.978 24.5568 2.9651
H 27.1812 25.0845 2.91054
H 28.6806 25.1562 2.71365
Ow 14.3565 8.27418 26.922
H 13.5715 8.42295 26.3948
H 14.452 7.32208 26.9468
Ow 12.2653 12.2091 12.9965
H 12.2122 12.632 13.8536
H 11.3545 12.0409 12.755
Ow 14.6314 9.82994 2.62658
H 14.4458 10.7654 2.54499
H 14.0165 9.52045 3.29174
Ow 9.49313 14.1942 16.1687
H 9.60317 14.357 15.2319
H 9.15909 15.0203 16.5183
Ow 25.1875 14.2908 4.27071
H 24.6923 13.4747 4.20019
H 25.1436 14.5186 5.19936
Ow 5.80224 23.5139 24.411
H 5.42455 24.2623 23.949
H 6.74723 23.6622 24.3758
Ow 27.4792 14.6114 17.5718
H 27.0426 14.2175 16.8165
H 27.0442 14.2221 18.3304
Ow 3.91389 12.2809 27.1917
H 3.40621 12.6246 27.9268
H 3.31944 11.6721 26.7533
Ow 16.4876 1.53587 19.6656
H 16.3918 2.1315 20.4087
H 15.9821 1.94505 18.9633
Ow 11.0903 19.7054 8.98198
H 11.1869 19.8762 9.91885
H 10.5093 20.3992 8.67015
Ow 9.98251 23.0669 17.8105
H 9.45495 22.9083 17.0277
H 9.60085 22.4955 18.4769
Ow 17.4983 24.5298 25.0278
H 17.0604 25.1249 24.4192
H 17.8852 25.1043 25.6885
Ow 4.5217 4.93124 1.38464
H 5.11276 5.68152 1.32166
H 3.76145 5.17985 0.858866
Ow 2.06448 30.5613 13.0336
H 2.4672 30.4683 12.1702
H 1.16871 30.2451 12.9159
Ow 1.40076 29.0578 29.0888
H 1.01656 28.8371 29.9373
H 0.786281 29.6815 28.7021
Ow 2.97689 26.2813 24.7583
H 3.56262 25.8351 24.1467
H 3.22827 27.2032 24.7022
Ow 20.0188 1.25275 24.5547
H 20.752 1.04512 23.9755
H 19.9516 2.2071 24.5241
Ow 2.07132 3.48642 4.62033
H 2.79696 3.57522 5.23822
H 1.87048 4.38404 4.35543
Ow 27.4129 22.5133 14.0434
H 27.266 23.1221 14.7673
H 27.9293 21.8045 14.427
Ow 7.16487 24.3453 14.7038
H 7.11916 25.2776 14.4918
H 8.01905 24.0658 14.3744
Ow 15.7885 27.4961 19.4496
H 16.1056 27.9672 20.2202
H 15.0862 26.9372 19.7823
Ow 11.4033 5.3374 16.4808
H 11.1285 4.58936 15.9506
H 11.6908 4.95214 17.3086
Ow 18.6762 3.91114 25.6223
H 17.9163 3.33869 25.5175
H 18.9881 3.73584 26.5101
Ow 9.25939 2.20093 6.62089
H 8.31096 2.07374 6.64424
H 9.39853 3.04741 7.04554
Ow 11.5412 21.1593 28.7518
H 11.129 21.9342 28.3697
H 12.354 21.4857 29.1378
Ow 7.62626 9.41093 2.03064
H 7.42649 9.83335 1.19524
H 8.58231 9.41196 2.07752
Ow 19.9631 27.969 1.92143
H 20.7499 28.5098 1.85264
H 19.4667 28.1652 1.12684
Ow 26.3102 8.54107 21.9506
H 25.532 8.95414 22.3248
H 26.9008 8.42372 22.6946
Ow 25.2809 21.3779 16.1032
H 26.0628 20.83 16.0359
H 25.6136 22.2423 16.3447
Ow 10.4319 29.3127 17.0496
H 11.3457 29.2659 17.3304
H 10.4741 29.3086 16.0934
Ow 22.7184 2.26479 31.0545
H 22.7248 1.40075 30.6426
H 21.8216 2.57892 30.9392
Ow 29.3091 19.2318 21.7927
H 29.4676 19.0622 20.864
H 28.4324 19.6151 21.8204
Ow 16.7988 15.8323 23.8288
H 17.1485 15.385 24.5995
H 15.963 16.196 24.121
Ow 3.36006 9.61129 18.8997
H 3.03528 9.40908 18.0223
H 3.05516 8.88386 19.442
Ow 2.35279 24.4781 18.5095
H 1.92103 24.271 19.3383
H 1.95354 25.302 18.2302
Ow 30.8415 21.7692 3.91582
H 31.6505 21.286 4.08401
H 30.3775 21.2415 3.26583
Ow 23.8327 25.4219 29.2616
H 23.5953 26.1605 28.7009
H 24.7797 25.3336 29.154
Ow 17.6738 15.9188 18.9699
H 18.4132 15.829 18.3687
H 17.2199 16.7086 18.6758
Ow 5.9286 4.08806 25.6504
H 6.67211 4.64215 25.8879
H 5.8958 4.12723 24.6946
Ow 10.4458 17.9383 14.0565
H 10.4302 18.7517 14.5608
H 10.6606 18.2127 13.165
Ow 16.0311 6.12253 13.6466
H 16.8612 5.67468 13.8099
H 15.5877 6.12289 14.495
Ow 18.0465 23.7366 4.55575
H 18.6293 24.4627 4.33368
H 18.5951 22.9561 4.47786
Ow 1.86209 23.6736 5.60067
H 1.26837 23.6746 4.84986
H 1.40795 24.19 6.26645
Ow 19.8028 18.5061 20.8632
H 20.2554 17.7474 21.2318
H 18.9315 18.4812 21.2587
Ow 2.05638 13.6029 18.7843
H 2.86911 13.1894 19.0754
H 2.29555 14.5158 18.6242
Ow 4.61 25.3476 22.8487
H 4.64201 24.631 22.215
H 5.10154 26.0567 22.4342
Ow 16.9067 18.3637 2.71736
H 16.9635 17.4332 2.50011
H 17.7682 18.5799 3.07392
Ow 3.19038 29.4023 21.474
H 3.16942 30.3104 21.1721
H 2.66948 28.9231 20.8296
Ow 10.4871 0.407349 17.901
H 9.62011 0.764204 18.0939
H 10.3334 30.9651 17.7424
Ow 4.9116 31.1901 4.28626
H 5.30539 30.7878 5.06045
H 5.65534 31.5244 3.78493
Ow 13.9361 21.4333 30.0623
H 14.2271 20.5364 29.8975
H 14.6966 21.9749 29.8516
Ow 29.1896 10.6563 23.2088
H 28.8583 10.5266 22.3202
H 29.4081 9.77593 23.5143
Ow 17.7568 10.6377 3.22891
H 17.3995 10.9728 4.05126
H 17.0259 10.173 2.82139
Ow 26.5119 4.70387 10.8046
H 26.9675 3.91613 11.1014
H 25.616 4.59792 11.1246
Ow 0.180433 22.1906 12.2423
H 0.829204 22.8073 12.5815
H 0.514263 21.3291 12.4926
Ow 8.47593 16.812 16.5007
H 8.07308 17.2209 15.7347
H 9.20011 17.3942 16.7306
Ow 3.06309 0.744987 21.2999
H 2.11583 0.871641 21.3536
H 3.36745 0.823976 22.2039
Ow 18.7189 10.7274 17.1743
H 18.6353 10.5724 16.2334
H 19.3993 10.117 17.4585
Ow 15.3807 6.62131 18.4092
H 15.7167 6.40723 19.2795
H 15.742 7.48695 18.2187
Ow 25.9529 20.3753 7.16983
H 25.6038 19.5351 7.46718
H 25.9433 20.929 7.95058
Ow 3.11579 7.8245 1.96652
H 2.97812 8.35954 1.18485
H 4.01744 7.51283 1.88826
Ow 5.32549 13.4524 25.2176
H 4.95796 13.0365 25.9976
H 5.96121 14.0817 25.5582
Ow 9.48638 29.2817 20.4661
H 8.9644 29.7932 19.8478
H 9.03787 29.3888 21.3049
Ow 25.4938 3.97728 30.2187
H 24.9076 4.16048 30.9529
H 24.9613 4.1398 29.44
Ow 9.32824 9.41657 24.0261
H 10.2415 9.43256 24.3124
H 9.35427 9.73262 23.123
Ow 7.9858 16.7245 7.68379
H 7.4663 17.3191 8.22485
H 8.88858 17.0203 7.80093
Ow 28.4398 23.4513 9.88223
H 29.2129 23.4249 9.31847
H 28.7923 23.4757 10.7719
Ow 27.7363 16.6423 5.01916
H 27.0048 17.1416 4.65609
H 28.3752 17.3064 5.27793
Ow 26.7674 28.7834 29.5919
H 26.6458 27.9465 29.1435
H 27.5203 28.6411 30.1656
Ow 24.8069 14.8101 16.5726
H 23.8502 14.78 16.5793
H 25.0338 15.3914 17.2984
Ow 4.98165 30.5209 11.2735
H 5.30763 29.6929 10.9207
H 5.55175 30.7047 12.0201
Ow 4.33062 22.9427 9.78141
H 4.95572 22.9974 9.05859
H 4.87298 22.8032 10.5577
Ow 8.08379 25.4791 17.7988
H 8.9933 25.2727 18.0142
H 7.62536 24.6415 17.8652
Ow 13.7135 29.3513 4.69634
H 14.4035 28.6925 4.77325
H 14.1644 30.1358 4.38419
Ow 21.0263 9.32524 17.7008
H 21.262 9.24781 18.6253
H 21.8526 9.20862 17.2319
Ow 13.4022 5.4576 7.52715
H 12.4803 5.69069 7.41682
H 13.864 6.29599 7.52181
Ow 22.3724 6.2119 28.943
H 21.6608 6.66766 28.4934
H 22.885 6.91012 29.3504
Ow 19.7326 29.685 7.82321
H 19.6558 29.0167 8.50417
H 20.6495 29.6462 7.5511
Ow 21.7024 23.0978 21.793
H 22.155 22.2547 21.7692
H 21.056 23.0035 22.4926
Ow 10.9727 12.0391 2.75732
H 10.4539 12.3728 3.48928
H 11.8813 12.1435 3.03988
Ow 14.7479 18.6974 28.4167
H 14.6693 18.1125 29.1702
H 14.2348 18.2732 27.729
Ow 0.203555 18.0465 31.6525