created by fftool

3036 atoms
2000 bonds
1000 angles
4 atom types
1 bond types
1 angle types
0.000000 31.507850 xlo xhi
0.000000 31.507850 ylo yhi
0.000000 31.507850 zlo zhi
Atoms

      1       1    1  -1.112800  1.520148e+01  7.973199e+00  2.330336e+01  # Ow water
      2       1    2   0.556400  1.463364e+01  7.216711e+00  2.345001e+01  # Hw water
      3       1    2   0.556400  1.604537e+01  7.715320e+00  2.367428e+01  # Hw water
      4       2    1  -1.112800  2.322911e+01  2.994974e+01  6.904573e+00  # Ow water
      5       2    2   0.556400  2.399400e+01  3.000969e+01  7.476914e+00  # Hw water
      6       2    2   0.556400  2.249389e+01  2.980720e+01  7.500702e+00  # Hw water
      7       3    1  -1.112800  1.915202e+01  1.752999e+00  9.795496e+00  # Ow water
      8       3    2   0.556400  1.839556e+01  2.181923e+00  1.019552e+01  # Hw water
      9       3    2   0.556400  1.970283e+01  1.498421e+00  1.053579e+01  # Hw water
     10       4    1  -1.112800  5.864516e+00  2.285151e+00  9.188249e+00  # Ow water
     11       4    2   0.556400  6.237791e+00  2.236175e+00  8.308195e+00  # Hw water
     12       4    2   0.556400  5.324773e+00  1.498291e+00  9.264134e+00  # Hw water
     13       5    1  -1.112800  5.247545e+00  1.500320e+00  1.514185e+01  # Ow water
     14       5    2   0.556400  6.005153e+00  1.499929e+00  1.455683e+01  # Hw water
     15       5    2   0.556400  4.491254e+00  1.499590e+00  1.455513e+01  # Hw water
     16       6    1  -1.112800  2.976618e+01  1.945441e+01  1.457908e+01  # Ow water
     17       6    2   0.556400  3.000802e+01  1.859809e+01  1.422631e+01  # Hw water
     18       6    2   0.556400  3.000804e+01  1.940989e+01  1.550415e+01  # Hw water
     19       7    1  -1.112800  2.999914e+01  2.363448e+01  2.084957e+00  # Ow water
     20       7    2   0.556400  2.999053e+01  2.439175e+01  1.499553e+00  # Hw water
     21       7    2   0.556400  3.000801e+01  2.287795e+01  1.498602e+00  # Hw water
     22       8    1  -1.112800  1.174458e+01  2.554048e+01  8.478222e+00  # Ow water
     23       8    2   0.556400  1.195762e+01  2.463972e+01  8.234346e+00  # Hw water
     24       8    2   0.556400  1.100792e+01  2.577418e+01  7.913476e+00  # Hw water
     25       9    1  -1.112800  1.404322e+01  1.617422e+01  1.863559e+00  # Ow water
     26       9    2   0.556400  1.337445e+01  1.601150e+01  2.528770e+00  # Hw water
     27       9    2   0.556400  1.485921e+01  1.587655e+01  2.265774e+00  # Hw water
     28      10    1  -1.112800  1.996208e+01  3.000769e+01  1.513558e+01  # Ow water
     29      10    2   0.556400  2.057450e+01  2.931777e+01  1.488028e+01  # Hw water
     30      10    2   0.556400  1.922610e+01  2.954089e+01  1.553137e+01  # Hw water
     31      11    1  -1.112800  3.880600e+00  2.997366e+01  2.910881e+01  # Ow water
     32      11    2   0.556400  4.190083e+00  3.001226e+01  3.001377e+01  # Hw water
     33      11    2   0.556400  3.929425e+00  2.904602e+01  2.887784e+01  # Hw water
     34      12    1  -1.112800  1.628028e+01  2.380167e+01  1.341294e+01  # Ow water
     35      12    2   0.556400  1.704376e+01  2.323879e+01  1.328446e+01  # Hw water
     36      12    2   0.556400  1.563686e+01  2.348136e+01  1.278078e+01  # Hw water
     37      13    1  -1.112800  1.171816e+01  2.078417e+01  2.306943e+01  # Ow water
     38      13    2   0.556400  1.256932e+01  2.036944e+01  2.320997e+01  # Hw water
     39      13    2   0.556400  1.148819e+01  2.115482e+01  2.392147e+01  # Hw water
     40      14    1  -1.112800  2.518764e+01  2.996590e+01  2.494403e+01  # Ow water
     41      14    2   0.556400  2.453200e+01  3.000837e+01  2.564014e+01  # Hw water
     42      14    2   0.556400  2.468021e+01  3.000837e+01  2.413352e+01  # Hw water
     43      15    1  -1.112800  2.477281e+01  4.432490e+00  2.107998e+01  # Ow water
     44      15    2   0.556400  2.532173e+01  5.059221e+00  2.060868e+01  # Hw water
     45      15    2   0.556400  2.527340e+01  4.219817e+00  2.186763e+01  # Hw water
     46      16    1  -1.112800  1.077272e+01  3.000806e+01  2.531765e+01  # Ow water
     47      16    2   0.556400  1.078709e+01  3.000947e+01  2.436056e+01  # Hw water
     48      16    2   0.556400  1.168721e+01  2.988291e+01  2.557121e+01  # Hw water
     49      17    1  -1.112800  1.135664e+01  1.016604e+01  1.720001e+01  # Ow water
     50      17    2   0.556400  1.204438e+01  9.585006e+00  1.752502e+01  # Hw water
     51      17    2   0.556400  1.182784e+01  1.086860e+01  1.675212e+01  # Hw water
     52      18    1  -1.112800  2.007790e+01  7.400783e+00  1.490489e+01  # Ow water
     53      18    2   0.556400  2.099858e+01  7.289646e+00  1.514201e+01  # Hw water
     54      18    2   0.556400  2.009910e+01  7.714311e+00  1.400075e+01  # Hw water
     55      19    1  -1.112800  9.628324e+00  5.245684e+00  2.125152e+01  # Ow water
     56      19    2   0.556400  9.958456e+00  5.272204e+00  2.035345e+01  # Hw water
     57      19    2   0.556400  8.735159e+00  4.911478e+00  2.116911e+01  # Hw water
     58      20    1  -1.112800  1.688644e+01  1.852429e+01  3.000848e+01  # Ow water
     59      20    2   0.556400  1.650734e+01  1.764537e+01  3.000798e+01  # Hw water
     60      20    2   0.556400  1.783077e+01  1.837838e+01  2.995198e+01  # Hw water
     61      21    1  -1.112800  1.631454e+01  1.303907e+01  3.219656e+00  # Ow water
     62      21    2   0.556400  1.638131e+01  1.259553e+01  4.065256e+00  # Hw water
     63      21    2   0.556400  1.610400e+01  1.394633e+01  3.440507e+00  # Hw water
     64      22    1  -1.112800  2.333912e+01  5.816357e+00  1.771643e+01  # Ow water
     65      22    2   0.556400  2.249602e+01  6.230329e+00  1.790089e+01  # Hw water
     66      22    2   0.556400  2.349406e+01  5.242627e+00  1.846680e+01  # Hw water
     67      23    1  -1.112800  1.383886e+01  5.818394e+00  1.881681e+01  # Ow water
     68      23    2   0.556400  1.463792e+01  6.344925e+00  1.883911e+01  # Hw water
     69      23    2   0.556400  1.377601e+01  5.440331e+00  1.969394e+01  # Hw water
     70      24    1  -1.112800  1.641952e+01  2.317921e+01  1.586661e+01  # Ow water
     71      24    2   0.556400  1.665478e+01  2.293077e+01  1.676056e+01  # Hw water
     72      24    2   0.556400  1.615850e+01  2.235787e+01  1.545007e+01  # Hw water
     73      25    1  -1.112800  1.046805e+01  1.429862e+01  1.514217e+00  # Ow water
     74      25    2   0.556400  9.896736e+00  1.506649e+01  1.499580e+00  # Hw water
     75      25    2   0.556400  1.135474e+01  1.465890e+01  1.499649e+00  # Hw water
     76      26    1  -1.112800  9.475479e+00  1.053627e+01  8.234961e+00  # Ow water
     77      26    2   0.556400  9.937880e+00  1.000646e+01  8.884353e+00  # Hw water
     78      26    2   0.556400  9.015352e+00  1.119924e+01  8.749737e+00  # Hw water
     79      27    1  -1.112800  1.461587e+01  1.056928e+01  1.613338e+01  # Ow water
     80      27    2   0.556400  1.399546e+01  1.094533e+01  1.550896e+01  # Hw water
     81      27    2   0.556400  1.523315e+01  1.007749e+01  1.559178e+01  # Hw water
     82      28    1  -1.112800  2.171585e+01  2.305579e+00  1.360520e+01  # Ow water
     83      28    2   0.556400  2.114522e+01  2.187991e+00  1.436466e+01  # Hw water
     84      28    2   0.556400  2.161449e+01  3.227708e+00  1.336934e+01  # Hw water
     85      29    1  -1.112800  1.788028e+01  2.901478e+01  2.134107e+01  # Ow water
     86      29    2   0.556400  1.821739e+01  2.967732e+01  2.073806e+01  # Hw water
     87      29    2   0.556400  1.749956e+01  2.834489e+01  2.077316e+01  # Hw water
     88      30    1  -1.112800  2.736279e+01  8.783537e+00  2.757023e+01  # Ow water
     89      30    2   0.556400  2.769753e+01  9.612034e+00  2.791341e+01  # Hw water
     90      30    2   0.556400  2.733269e+01  8.911177e+00  2.662206e+01  # Hw water
     91      31    1  -1.112800  5.913667e+00  3.063442e+00  2.252437e+01  # Ow water
     92      31    2   0.556400  5.389322e+00  3.673125e+00  2.304358e+01  # Hw water
     93      31    2   0.556400  6.709242e+00  3.551570e+00  2.231219e+01  # Hw water
     94      32    1  -1.112800  2.702499e+01  2.055138e+00  5.512127e+00  # Ow water
     95      32    2   0.556400  2.750050e+01  1.499400e+00  6.129603e+00  # Hw water
     96      32    2   0.556400  2.632308e+01  1.496657e+00  5.177987e+00  # Hw water
     97      33    1  -1.112800  1.355166e+01  1.500164e+01  1.014507e+01  # Ow water
     98      33    2   0.556400  1.332394e+01  1.504655e+01  1.107371e+01  # Hw water
     99      33    2   0.556400  1.450660e+01  1.506530e+01  1.012879e+01  # Hw water
    100      34    1  -1.112800  2.616511e+01  2.196572e+01  2.125929e+01  # Ow water
    101      34    2   0.556400  2.566430e+01  2.269046e+01  2.088490e+01  # Hw water
    102      34    2   0.556400  2.556464e+01  2.155528e+01  2.188155e+01  # Hw water
    103      35    1  -1.112800  1.236493e+01  6.507077e+00  2.997157e+01  # Ow water
    104      35    2   0.556400  1.141837e+01  6.369511e+00  3.000794e+01  # Hw water
    105      35    2   0.556400  1.273132e+01  5.628748e+00  2.986899e+01  # Hw water
    106      36    1  -1.112800  2.084740e+01  1.756654e+01  1.624664e+01  # Ow water
    107      36    2   0.556400  2.114157e+01  1.678294e+01  1.671104e+01  # Hw water
    108      36    2   0.556400  2.128652e+01  1.752119e+01  1.539731e+01  # Hw water
    109      37    1  -1.112800  2.106187e+01  1.347707e+01  2.206037e+01  # Ow water
    110      37    2   0.556400  2.015558e+01  1.323037e+01  2.187598e+01  # Hw water
    111      37    2   0.556400  2.157636e+01  1.301045e+01  2.140175e+01  # Hw water
    112      38    1  -1.112800  1.821241e+01  1.364466e+01  5.932955e+00  # Ow water
    113      38    2   0.556400  1.775953e+01  1.424545e+01  5.341207e+00  # Hw water
    114      38    2   0.556400  1.867223e+01  1.303768e+01  5.352980e+00  # Hw water
    115      39    1  -1.112800  1.003206e+01  2.531925e+01  5.657503e+00  # Ow water
    116      39    2   0.556400  9.610308e+00  2.463715e+01  5.134927e+00  # Hw water
    117      39    2   0.556400  1.046372e+01  2.588176e+01  5.014480e+00  # Hw water
    118      40    1  -1.112800  1.992411e+01  2.159208e+01  1.527069e+00  # Ow water
    119      40    2   0.556400  1.898175e+01  2.142742e+01  1.494181e+00  # Hw water
    120      40    2   0.556400  2.029661e+01  2.078459e+01  1.881254e+00  # Hw water
    121      41    1  -1.112800  4.316646e+00  1.518278e+01  2.937095e+01  # Ow water
    122      41    2   0.556400  4.789681e+00  1.464747e+01  3.000806e+01  # Hw water
    123      41    2   0.556400  3.771805e+00  1.576312e+01  2.990254e+01  # Hw water
    124      42    1  -1.112800  2.468992e+01  1.513398e+01  1.737337e+01  # Ow water
    125      42    2   0.556400  2.537758e+01  1.471440e+01  1.789039e+01  # Hw water
    126      42    2   0.556400  2.463592e+01  1.602350e+01  1.772276e+01  # Hw water
    127      43    1  -1.112800  2.321204e+01  2.746546e+01  2.946972e+01  # Ow water
    128      43    2   0.556400  2.250090e+01  2.781285e+01  3.000807e+01  # Hw water
    129      43    2   0.556400  2.401029e+01  2.777516e+01  2.989763e+01  # Hw water
    130      44    1  -1.112800  2.990672e+01  1.658485e+01  2.049482e+01  # Ow water
    131      44    2   0.556400  2.952550e+01  1.571560e+01  2.037110e+01  # Hw water
    132      44    2   0.556400  3.000822e+01  1.693081e+01  1.960813e+01  # Hw water
    133      45    1  -1.112800  1.430435e+01  1.879815e+01  2.974771e+01  # Ow water
    134      45    2   0.556400  1.469482e+01  1.896740e+01  2.889032e+01  # Hw water
    135      45    2   0.556400  1.341946e+01  1.915744e+01  2.968357e+01  # Hw water
    136      46    1  -1.112800  2.734338e+01  2.667119e+01  2.998887e+01  # Ow water
    137      46    2   0.556400  2.640143e+01  2.684104e+01  2.999988e+01  # Hw water
    138      46    2   0.556400  2.767816e+01  2.722128e+01  2.928066e+01  # Hw water
    139      47    1  -1.112800  2.908075e+01  2.175872e+01  9.732788e+00  # Ow water
    140      47    2   0.556400  2.856420e+01  2.249850e+01  1.005236e+01  # Hw water
    141      47    2   0.556400  2.995436e+01  2.190074e+01  1.009730e+01  # Hw water
    142      48    1  -1.112800  1.402624e+01  2.702227e+01  2.648804e+01  # Ow water
    143      48    2   0.556400  1.481409e+01  2.710693e+01  2.702503e+01  # Hw water
    144      48    2   0.556400  1.419116e+01  2.625561e+01  2.593917e+01  # Hw water
    145      49    1  -1.112800  3.000773e+01  1.708547e+01  1.642448e+01  # Ow water
    146      49    2   0.556400  3.000968e+01  1.646363e+01  1.715218e+01  # Hw water
    147      49    2   0.556400  2.992883e+01  1.653934e+01  1.564234e+01  # Hw water
    148      50    1  -1.112800  1.654400e+01  2.906811e+01  2.683434e+01  # Ow water
    149      50    2   0.556400  1.749126e+01  2.894466e+01  2.677360e+01  # Hw water
    150      50    2   0.556400  1.641573e+01  3.000793e+01  2.670583e+01  # Hw water
    151      51    1  -1.112800  7.238389e+00  2.673790e+01  2.105829e+01  # Ow water
    152      51    2   0.556400  6.385536e+00  2.646184e+01  2.139394e+01  # Hw water
    153      51    2   0.556400  7.049005e+00  2.751401e+01  2.053101e+01  # Hw water
    154      52    1  -1.112800  1.155223e+01  2.152300e+01  2.827676e+01  # Ow water
    155      52    2   0.556400  1.207568e+01  2.116121e+01  2.899184e+01  # Hw water
    156      52    2   0.556400  1.099146e+01  2.079852e+01  2.799945e+01  # Hw water
    157      53    1  -1.112800  2.038816e+01  1.669014e+01  2.669916e+01  # Ow water
    158      53    2   0.556400  2.117855e+01  1.664549e+01  2.723723e+01  # Hw water
    159      53    2   0.556400  2.062598e+01  1.624479e+01  2.588593e+01  # Hw water
    160      54    1  -1.112800  1.903973e+01  1.873104e+01  2.554242e+00  # Ow water
    161      54    2   0.556400  1.983584e+01  1.863847e+01  3.077569e+00  # Hw water
    162      54    2   0.556400  1.925213e+01  1.831527e+01  1.718627e+00  # Hw water
    163      55    1  -1.112800  1.019193e+01  1.164450e+01  3.000843e+01  # Ow water
    164      55    2   0.556400  1.009402e+01  1.253017e+01  2.965882e+01  # Hw water
    165      55    2   0.556400  9.726517e+00  1.108740e+01  2.938452e+01  # Hw water
    166      56    1  -1.112800  2.877432e+01  1.499672e+00  2.143151e+01  # Ow water
    167      56    2   0.556400  2.787879e+01  1.499858e+00  2.109349e+01  # Hw water
    168      56    2   0.556400  2.932144e+01  1.655356e+00  2.066167e+01  # Hw water
    169      57    1  -1.112800  3.871944e+00  3.622861e+00  8.447356e+00  # Ow water
    170      57    2   0.556400  3.889660e+00  2.923114e+00  7.794464e+00  # Hw water
    171      57    2   0.556400  3.503523e+00  3.212057e+00  9.229491e+00  # Hw water
    172      58    1  -1.112800  2.603834e+01  1.213286e+01  1.165174e+01  # Ow water
    173      58    2   0.556400  2.689022e+01  1.170037e+01  1.159279e+01  # Hw water
    174      58    2   0.556400  2.543953e+01  1.154781e+01  1.118767e+01  # Hw water
    175      59    1  -1.112800  1.323798e+01  1.123839e+01  2.177432e+01  # Ow water
    176      59    2   0.556400  1.369394e+01  1.178779e+01  2.113676e+01  # Hw water
    177      59    2   0.556400  1.231138e+01  1.144240e+01  2.164776e+01  # Hw water
    178      60    1  -1.112800  8.514340e+00  1.585679e+01  1.980988e+01  # Ow water
    179      60    2   0.556400  8.919609e+00  1.510839e+01  1.937183e+01  # Hw water
    180      60    2   0.556400  8.773776e+00  1.576748e+01  2.072691e+01  # Hw water
    181      61    1  -1.112800  1.693368e+01  4.401190e+00  8.722467e+00  # Ow water
    182      61    2   0.556400  1.611065e+01  4.361924e+00  9.209616e+00  # Hw water
    183      61    2   0.556400  1.761176e+01  4.417849e+00  9.397859e+00  # Hw water
    184      62    1  -1.112800  3.391394e+00  1.881200e+01  1.991513e+01  # Ow water
    185      62    2   0.556400  4.169820e+00  1.827799e+01  2.007361e+01  # Hw water
    186      62    2   0.556400  3.647432e+00  1.940600e+01  1.920955e+01  # Hw water
    187      63    1  -1.112800  1.915921e+01  2.051745e+01  2.398253e+01  # Ow water
    188      63    2   0.556400  1.942486e+01  2.056001e+01  2.306392e+01  # Hw water
    189      63    2   0.556400  1.886921e+01  1.961375e+01  2.410686e+01  # Hw water
    190      64    1  -1.112800  1.707153e+01  1.876484e+01  8.717633e+00  # Ow water
    191      64    2   0.556400  1.757423e+01  1.919031e+01  9.412255e+00  # Hw water
    192      64    2   0.556400  1.745710e+01  1.909454e+01  7.905933e+00  # Hw water
    193      65    1  -1.112800  2.973699e+01  6.537033e+00  8.329925e+00  # Ow water
    194      65    2   0.556400  3.000827e+01  6.630724e+00  9.243083e+00  # Hw water
    195      65    2   0.556400  3.001054e+01  5.652265e+00  8.087875e+00  # Hw water
    196      66    1  -1.112800  3.968212e+00  2.631275e+01  2.676174e+01  # Ow water
    197      66    2   0.556400  3.946184e+00  2.707089e+01  2.734567e+01  # Hw water
    198      66    2   0.556400  3.996295e+00  2.555782e+01  2.734955e+01  # Hw water
    199      67    1  -1.112800  8.369647e+00  2.830817e+00  3.681808e+00  # Ow water
    200      67    2   0.556400  7.910696e+00  3.359332e+00  3.028919e+00  # Hw water
    201      67    2   0.556400  8.947572e+00  2.265259e+00  3.169582e+00  # Hw water
    202      68    1  -1.112800  1.721136e+01  3.683242e+00  2.796907e+01  # Ow water
    203      68    2   0.556400  1.650237e+01  4.224416e+00  2.762165e+01  # Hw water
    204      68    2   0.556400  1.801157e+01  4.134071e+00  2.769954e+01  # Hw water
    205      69    1  -1.112800  2.200730e+01  3.559922e+00  6.677807e+00  # Ow water
    206      69    2   0.556400  2.256143e+01  3.886873e+00  5.969094e+00  # Hw water
    207      69    2   0.556400  2.253075e+01  2.876155e+00  7.095772e+00  # Hw water
    208      70    1  -1.112800  1.295884e+01  2.948699e+01  1.925140e+01  # Ow water
    209      70    2   0.556400  1.292869e+01  2.892187e+01  1.847942e+01  # Hw water
    210      70    2   0.556400  1.375347e+01  3.000812e+01  1.913645e+01  # Hw water
    211      71    1  -1.112800  4.751329e+00  1.374318e+01  6.659479e+00  # Ow water
    212      71    2   0.556400  4.951380e+00  1.296553e+01  6.138447e+00  # Hw water
    213      71    2   0.556400  3.830940e+00  1.392744e+01  6.471970e+00  # Hw water
    214      72    1  -1.112800  2.558902e+01  1.564855e+01  1.033226e+01  # Ow water
    215      72    2   0.556400  2.559833e+01  1.561327e+01  1.128876e+01  # Hw water
    216      72    2   0.556400  2.589097e+01  1.653215e+01  1.012174e+01  # Hw water
    217      73    1  -1.112800  2.706316e+01  3.000874e+01  1.980795e+00  # Ow water
    218      73    2   0.556400  2.762154e+01  2.939830e+01  1.499323e+00  # Hw water
    219      73    2   0.556400  2.623621e+01  3.000883e+01  1.498748e+00  # Hw water
    220      74    1  -1.112800  1.159961e+01  3.903527e+00  1.780630e+01  # Ow water
    221      74    2   0.556400  1.157723e+01  4.785386e+00  1.743474e+01  # Hw water
    222      74    2   0.556400  1.165413e+01  4.042762e+00  1.875174e+01  # Hw water
    223      75    1  -1.112800  2.766318e+01  4.319512e+00  6.357209e+00  # Ow water
    224      75    2   0.556400  2.834274e+01  4.993554e+00  6.347070e+00  # Hw water
    225      75    2   0.556400  2.763837e+01  4.017374e+00  7.265133e+00  # Hw water
    226      76    1  -1.112800  1.674337e+00  1.606074e+01  1.087628e+01  # Ow water
    227      76    2   0.556400  1.500009e+00  1.512386e+01  1.096620e+01  # Hw water
    228      76    2   0.556400  1.497306e+00  1.625045e+01  9.954920e+00  # Hw water
    229      77    1  -1.112800  2.534842e+01  2.044860e+00  2.309799e+01  # Ow water
    230      77    2   0.556400  2.576710e+01  1.499996e+00  2.243161e+01  # Hw water
    231      77    2   0.556400  2.534312e+01  1.499953e+00  2.388493e+01  # Hw water
    232      78    1  -1.112800  2.531870e+01  1.719695e+01  2.422342e+00  # Ow water
    233      78    2   0.556400  2.611643e+01  1.666795e+01  2.419785e+00  # Hw water
    234      78    2   0.556400  2.515781e+01  1.739305e+01  1.499362e+00  # Hw water
    235      79    1  -1.112800  8.640544e+00  3.000837e+01  1.093693e+01  # Ow water
    236      79    2   0.556400  8.369840e+00  2.981823e+01  1.183515e+01  # Hw water
    237      79    2   0.556400  9.596554e+00  2.996693e+01  1.096053e+01  # Hw water
    238      80    1  -1.112800  1.498658e+00  2.113625e+01  2.044627e+01  # Ow water
    239      80    2   0.556400  1.621612e+00  2.165839e+01  2.123903e+01  # Hw water
    240      80    2   0.556400  1.509708e+00  2.022930e+01  2.075214e+01  # Hw water
    241      81    1  -1.112800  7.228905e+00  1.873641e+01  2.098840e+01  # Ow water
    242      81    2   0.556400  6.779401e+00  1.906383e+01  2.020932e+01  # Hw water
    243      81    2   0.556400  7.315851e+00  1.779518e+01  2.083753e+01  # Hw water
    244      82    1  -1.112800  3.864691e+00  2.177659e+00  2.116934e+01  # Ow water
    245      82    2   0.556400  3.531666e+00  2.759360e+00  2.048600e+01  # Hw water
    246      82    2   0.556400  4.344868e+00  1.499499e+00  2.069420e+01  # Hw water
    247      83    1  -1.112800  8.735004e+00  6.154683e+00  1.792208e+01  # Ow water
    248      83    2   0.556400  8.027773e+00  6.209809e+00  1.856474e+01  # Hw water
    249      83    2   0.556400  8.468125e+00  6.748097e+00  1.722004e+01  # Hw water
    250      84    1  -1.112800  8.728859e+00  2.675536e+01  2.678006e+01  # Ow water
    251      84    2   0.556400  8.816446e+00  2.594570e+01  2.728306e+01  # Hw water
    252      84    2   0.556400  8.481467e+00  2.741493e+01  2.742813e+01  # Hw water
    253      85    1  -1.112800  2.980097e+01  1.764819e+00  2.988779e+01  # Ow water
    254      85    2   0.556400  2.888913e+01  1.499741e+00  3.000821e+01  # Hw water
    255      85    2   0.556400  3.000803e+01  1.510634e+00  2.898849e+01  # Hw water
    256      86    1  -1.112800  1.687656e+00  1.539167e+01  2.018660e+01  # Ow water
    257      86    2   0.556400  1.498728e+00  1.547986e+01  2.112082e+01  # Hw water
    258      86    2   0.556400  1.499039e+00  1.447424e+01  1.998917e+01  # Hw water
    259      87    1  -1.112800  2.306684e+01  2.245031e+01  2.878999e+01  # Ow water
    260      87    2   0.556400  2.385063e+01  2.285741e+01  2.842098e+01  # Hw water
    261      87    2   0.556400  2.288964e+01  2.294973e+01  2.958711e+01  # Hw water
    262      88    1  -1.112800  1.834803e+01  1.470512e+01  1.814555e+01  # Ow water
    263      88    2   0.556400  1.784467e+01  1.411457e+01  1.870601e+01  # Hw water
    264      88    2   0.556400  1.890873e+01  1.519053e+01  1.875071e+01  # Hw water
    265      89    1  -1.112800  2.318331e+01  1.137415e+01  1.723233e+01  # Ow water
    266      89    2   0.556400  2.288067e+01  1.049481e+01  1.745906e+01  # Hw water
    267      89    2   0.556400  2.385032e+01  1.123260e+01  1.656055e+01  # Hw water
    268      90    1  -1.112800  8.291844e+00  1.748536e+01  2.729318e+01  # Ow water
    269      90    2   0.556400  8.139555e+00  1.786264e+01  2.642675e+01  # Hw water
    270      90    2   0.556400  8.449963e+00  1.824072e+01  2.785944e+01  # Hw water
    271      91    1  -1.112800  2.126239e+00  8.676894e+00  1.079009e+01  # Ow water
    272      91    2   0.556400  1.537116e+00  8.138415e+00  1.131849e+01  # Hw water
    273      91    2   0.556400  1.594783e+00  8.951786e+00  1.004295e+01  # Hw water
    274      92    1  -1.112800  1.511752e+00  1.161218e+01  1.708564e+01  # Ow water
    275      92    2   0.556400  2.218426e+00  1.220937e+01  1.684028e+01  # Hw water
    276      92    2   0.556400  1.500163e+00  1.163437e+01  1.804251e+01  # Hw water
    277      93    1  -1.112800  1.253913e+01  2.089000e+01  1.643930e+00  # Ow water
    278      93    2   0.556400  1.199430e+01  2.166373e+01  1.499939e+00  # Hw water
    279      93    2   0.556400  1.331210e+01  2.122235e+01  2.100323e+00  # Hw water
    280      94    1  -1.112800  1.539237e+01  2.897936e+01  2.195923e+01  # Ow water
    281      94    2   0.556400  1.488495e+01  2.904900e+01  2.115058e+01  # Hw water
    282      94    2   0.556400  1.535560e+01  2.985598e+01  2.234187e+01  # Hw water
    283      95    1  -1.112800  5.493913e+00  2.797797e+01  2.429897e+01  # Ow water
    284      95    2   0.556400  5.444441e+00  2.746494e+01  2.510555e+01  # Hw water
    285      95    2   0.556400  4.963247e+00  2.748861e+01  2.367036e+01  # Hw water
    286      96    1  -1.112800  7.309934e+00  1.973630e+00  2.759482e+01  # Ow water
    287      96    2   0.556400  8.070756e+00  1.499595e+00  2.725916e+01  # Hw water
    288      96    2   0.556400  6.556956e+00  1.499710e+00  2.724176e+01  # Hw water
    289      97    1  -1.112800  2.608162e+01  1.087897e+01  3.000793e+01  # Ow water
    290      97    2   0.556400  2.701690e+01  1.108063e+01  2.997959e+01  # Hw water
    291      97    2   0.556400  2.582865e+01  1.078402e+01  2.908966e+01  # Hw water
    292      98    1  -1.112800  6.826936e+00  2.473138e+01  2.637912e+01  # Ow water
    293      98    2   0.556400  6.325371e+00  2.554427e+01  2.644138e+01  # Hw water
    294      98    2   0.556400  7.051969e+00  2.465867e+01  2.545160e+01  # Hw water
    295      99    1  -1.112800  1.351592e+01  2.228632e+00  1.292134e+01  # Ow water
    296      99    2   0.556400  1.308941e+01  3.065102e+00  1.310746e+01  # Hw water
    297      99    2   0.556400  1.440088e+01  2.466730e+00  1.264497e+01  # Hw water
    298     100    1  -1.112800  8.275910e+00  1.817861e+01  1.835143e+01  # Ow water
    299     100    2   0.556400  7.429871e+00  1.829833e+01  1.792002e+01  # Hw water
    300     100    2   0.556400  8.916168e+00  1.822605e+01  1.764147e+01  # Hw water
    301     101    1  -1.112800  3.000881e+01  6.079015e+00  1.538997e+01  # Ow water
    302     101    2   0.556400  2.988319e+01  6.381711e+00  1.628931e+01  # Hw water
    303     101    2   0.556400  2.950809e+01  6.696448e+00  1.485679e+01  # Hw water
    304     102    1  -1.112800  1.271955e+01  4.655882e+00  8.417279e+00  # Ow water
    305     102    2   0.556400  1.337986e+01  5.128464e+00  7.910437e+00  # Hw water
    306     102    2   0.556400  1.290148e+01  4.891325e+00  9.327057e+00  # Hw water
    307     103    1  -1.112800  2.083520e+00  1.167007e+01  2.994110e+01  # Ow water
    308     103    2   0.556400  1.499955e+00  1.242801e+01  2.997584e+01  # Hw water
    309     103    2   0.556400  1.499750e+00  1.091445e+01  3.000804e+01  # Hw water
    310     104    1  -1.112800  1.506080e+01  1.198016e+01  1.349809e+01  # Ow water
    311     104    2   0.556400  1.527748e+01  1.189646e+01  1.256951e+01  # Hw water
    312     104    2   0.556400  1.590752e+01  1.196639e+01  1.394430e+01  # Hw water
    313     105    1  -1.112800  8.181754e+00  7.889321e+00  2.621492e+01  # Ow water
    314     105    2   0.556400  7.384938e+00  7.568142e+00  2.579284e+01  # Hw water
    315     105    2   0.556400  8.668002e+00  7.097267e+00  2.644392e+01  # Hw water
    316     106    1  -1.112800  8.882855e+00  1.692827e+01  2.423033e+01  # Ow water
    317     106    2   0.556400  8.350093e+00  1.684746e+01  2.343922e+01  # Hw water
    318     106    2   0.556400  9.295445e+00  1.607038e+01  2.433048e+01  # Hw water
    319     107    1  -1.112800  7.679636e+00  2.683566e+01  2.351702e+01  # Ow water
    320     107    2   0.556400  7.779546e+00  2.683930e+01  2.446898e+01  # Hw water
    321     107    2   0.556400  8.541043e+00  2.658107e+01  2.318628e+01  # Hw water
    322     108    1  -1.112800  1.498002e+00  1.964503e+01  7.834300e+00  # Ow water
    323     108    2   0.556400  1.537316e+00  2.059601e+01  7.935859e+00  # Hw water
    324     108    2   0.556400  1.770717e+00  1.930134e+01  8.685026e+00  # Hw water
    325     109    1  -1.112800  1.165487e+01  8.637482e+00  1.524453e+01  # Ow water
    326     109    2   0.556400  1.256309e+01  8.926883e+00  1.515729e+01  # Hw water
    327     109    2   0.556400  1.171005e+01  7.819450e+00  1.573850e+01  # Hw water
    328     110    1  -1.112800  2.221618e+01  1.482954e+01  1.558005e+01  # Ow water
    329     110    2   0.556400  2.207891e+01  1.422487e+01  1.630927e+01  # Hw water
    330     110    2   0.556400  2.315006e+01  1.475893e+01  1.538228e+01  # Hw water
    331     111    1  -1.112800  1.357839e+01  6.357825e+00  1.794758e+00  # Ow water
    332     111    2   0.556400  1.367668e+01  7.262650e+00  1.498345e+00  # Hw water
    333     111    2   0.556400  1.268133e+01  6.123464e+00  1.556893e+00  # Hw water
    334     112    1  -1.112800  1.566074e+00  2.721843e+01  1.429991e+01  # Ow water
    335     112    2   0.556400  1.499818e+00  2.737100e+01  1.335728e+01  # Hw water
    336     112    2   0.556400  1.495754e+00  2.808988e+01  1.468960e+01  # Hw water
    337     113    1  -1.112800  1.547486e+00  1.381034e+01  7.678319e+00  # Ow water
    338     113    2   0.556400  1.499417e+00  1.417427e+01  8.562328e+00  # Hw water
    339     113    2   0.556400  1.499417e+00  1.457299e+01  7.101877e+00  # Hw water
    340     114    1  -1.112800  1.537716e+00  2.791784e+01  1.817357e+01  # Ow water
    341     114    2   0.556400  1.499849e+00  2.854699e+01  1.889396e+01  # Hw water
    342     114    2   0.556400  1.613890e+00  2.845795e+01  1.738699e+01  # Hw water
    343     115    1  -1.112800  2.270499e+00  1.530105e+00  2.658444e+01  # Ow water
    344     115    2   0.556400  1.499755e+00  1.499713e+00  2.601764e+01  # Hw water
    345     115    2   0.556400  1.916251e+00  1.498831e+00  2.747312e+01  # Hw water
    346     116    1  -1.112800  1.151979e+01  2.048864e+01  4.361808e+00  # Ow water