3036
Atoms. Timestep: 0
O 6.90062 10.8566 14.0961
H 7.38769 11.6788 14.1513
H 7.57046 10.1908 13.9402
O 9.35191 16.9926 16.9551
H 9.38467 17.7779 16.4087
H 9.75763 16.3107 16.4199
O 14.585 29.4361 18.4575
H 14.6969 29.7814 17.5718
H 14.53 30.2136 19.0131
O 4.83904 9.45675 30.2972
H 5.17069 8.72178 30.813
H 4.09206 9.09667 29.819
O 3.70275 28.4852 3.23421
H 3.21602 27.8363 3.7425
H 3.28947 28.4729 2.37092
O 27.5221 14.4378 2.29715
H 28.3519 14.1434 2.67264
H 27.2084 15.108 2.90421
O 22.3542 5.29292 28.0361
H 22.0033 4.40238 28.0263
H 23.061 5.27953 27.3909
O 2.37811 31.8717 25.0863
H 1.94461 1.39708 25.3761
H 2.62582 31.4267 25.8968
O 3.48751 7.98298 5.83537
H 3.07904 7.61911 6.62085
H 4.40695 7.72513 5.9016
O 10.8202 4.86115 12.9391
H 10.9692 5.2692 13.792
H 10.432 4.01064 13.1444
O 6.90604 15.289 8.36838
H 6.59919 14.4782 8.77428
H 6.97994 15.0783 7.43757
O 20.7501 17.6866 1.40042
H 21.4948 18.0797 0.945226
H 20.8849 16.7432 1.31076
O 3.75605 31.0681 27.4883
H 3.99135 30.2129 27.1283
H 3.23357 30.8662 28.2645
O 8.7522 22.6953 19.7688
H 9.05991 22.4147 20.6307
H 7.81459 22.5028 19.7743
O 23.3041 2.11539 8.63368
H 22.7899 1.48564 8.12839
H 23.2636 1.79128 9.53343
O 8.16849 22.7068 5.96154
H 8.74647 22.6996 6.72451
H 7.75307 21.8445 5.96699
O 31.3779 30.695 13.3982
H 31.469 31.6406 13.2805
H 30.7224 30.6013 14.0895
O 14.0174 9.76598 16.2211
H 13.1526 9.94905 15.8538
H 14.1604 8.83582 16.0462
O 25.4244 12.7681 1.71956
H 26.0651 13.3495 2.12916
H 25.2828 13.1419 0.849795
O 23.3039 24.7763 8.35168
H 23.7028 23.9094 8.27679
H 22.6387 24.7946 7.66364
O 13.8824 19.0423 17.4591
H 14.3732 19.4716 16.7584
H 13.3254 19.7322 17.8196
O 28.595 9.29126 31.5245
H 27.9665 8.86736 30.9401
H 28.9101 10.0479 31.03
O 4.05308 13.4094 26.4793
H 3.85469 14.3123 26.7277
H 3.65077 12.8777 27.1661
O 25.1907 10.0764 28.3739
H 25.5121 9.18851 28.2169
H 25.9826 10.6009 28.4921
O 2.13347 6.19327 28.8504
H 1.80466 6.16972 27.9517
H 1.71748 5.44462 29.2778
O 4.27513 31.5255 14.7874
H 4.847 31.8479 15.4839
H 4.82616 31.5266 14.0047
O 26.8368 30.5127 13.2799
H 27.2881 29.675 13.3837
H 26.0406 30.2978 12.794
O 13.2531 8.61901 11.1573
H 13.292 8.12182 10.3403
H 13.5242 9.50389 10.9129
O 4.63034 24.2902 16.7623
H 4.97311 24.5479 15.9066
H 3.79227 23.8703 16.5686
O 18.9217 29.1947 15.3984
H 18.9031 29.2714 14.4444
H 18.8934 30.0985 15.7124
O 7.56811 9.27368 29.3544
H 6.70326 9.56761 29.0683
H 8.07451 10.0797 29.4547
O 6.82709 30.2502 1.6236
H 6.10236 30.7826 1.29557
H 6.61096 30.0906 2.54231
O 12.6828 21.5291 23.1502
H 12.8086 20.7008 23.6131
H 12.4518 22.155 23.8367
O 29.2736 6.39786 17.9877
H 29.6264 5.64036 18.4546
H 29.644 6.33111 17.1075
O 29.5393 30.9719 4.41658
H 29.9281 30.8477 5.2824
H 29.0651 31.8007 4.48305
O 9.29025 23.6165 13.0418
H 10.0205 24.0335 13.4989
H 8.92851 23.0006 13.679
O 22.9685 4.842 8.77896
H 23.782 5.3175 8.9476
H 23.2485 3.94569 8.59334
O 6.73607 11.4772 7.36981
H 7.53289 11.4541 6.83994
H 6.9924 11.9381 8.16867
O 13.6581 4.51148 16.3978
H 12.9924 4.21663 15.7764
H 13.3329 4.22558 17.2515
O 17.1991 17.8742 6.03592
H 17.3999 18.7194 6.43782
H 18.0413 17.4209 5.99697
O 10.2455 21.9868 3.98477
H 11.061 22.4668 4.12869
H 9.62262 22.384 4.59341
O 25.0647 25.6197 26.1409
H 24.5112 25.8863 25.4069
H 25.1705 26.415 26.663
O 8.54593 15.831 24.3613
H 8.01302 15.5325 23.6243
H 9.3877 16.0643 23.9698
O 22.4375 4.27628 0.880549
H 21.6616 3.78597 0.608855
H 22.1208 4.86765 1.56334
O 11.1226 24.4518 1.06285
H 11.9588 24.7344 0.692416
H 10.4835 25.0732 0.714207
O 7.43667 25.2622 23.1576
H 8.15943 24.7138 23.4628
H 7.8542 26.0786 22.8831
O 8.73714 7.98252 24.1448
H 9.39752 7.28981 24.1283
H 8.43744 8.00674 25.0536
O 11.0373 10.7201 8.04917
H 10.6385 10.029 8.57786
H 11.0787 10.3531 7.16609
O 3.19215 22.6214 6.8017
H 3.274 23.5484 6.57769
H 3.34825 22.5879 7.74549
O 21.809 12.4774 28.602
H 22.415 12.7495 27.9129
H 20.9808 12.8997 28.3738
O 28.7709 3.17152 9.84128
H 28.9869 3.98705 9.38909
H 27.9313 2.90466 9.46694
O 10.2217 19.8046 11.275
H 11.0568 19.717 11.7346
H 9.58269 19.3948 11.858
O 10.3628 9.72376 2.85221
H 10.7541 9.87674 3.71226
H 10.7067 10.4285 2.30326
O 30.1301 25.9817 26.2896
H 30.3595 26.8981 26.1351
H 30.9413 25.5805 26.6014
O 2.26403 18.9462 7.39994
H 3.13773 19.3362 7.37226
H 2.42046 18.0032 7.3493
O 30.439 9.05375 26.856
H 30.2671 9.47006 26.0114
H 30.7205 9.77083 27.4241
O 25.5778 24.9802 4.04796
H 25.4168 25.784 4.54207
H 25.5475 24.2846 4.70479
O 11.4065 20.8289 7.73131
H 11.328 21.7626 7.92714
H 11.5831 20.7949 6.79114
O 25.3371 21.2457 18.9099
H 25.8858 21.1461 18.1319
H 24.94 20.3839 19.0354
O 24.4657 19.4169 14.6286
H 24.7152 18.6894 14.0587
H 23.5641 19.6192 14.3788
O 17.5324 6.94077 5.73459
H 17.647 6.09619 6.17021
H 17.0799 7.48414 6.37979
O 25.1169 10.1047 4.15904
H 25.431 9.94882 3.26837
H 24.8741 9.23735 4.4831
O 4.62698 13.4936 23.1355
H 5.14112 12.9239 22.5634
H 4.04203 12.8983 23.6042
O 22.59 25.639 14.8397
H 22.0292 25.4042 15.579
H 23.1208 26.367 15.163
O 16.2759 10.0053 22.0455
H 16.3303 10.8828 21.667
H 16.872 10.0295 22.7941
O 11.589 13.5496 17.3973
H 12.3105 14.1644 17.2641
H 11.9588 12.8619 17.9509
O 22.0337 10.4705 16.7647
H 22.1875 10.466 17.7095
H 21.1973 10.924 16.6599
O 5.09346 29.897 18.0246
H 5.39161 30.7636 17.7481
H 4.58859 30.0599 18.8214
O 11.7358 9.80021 28.9103
H 12.5603 10.1871 29.2047
H 11.8816 8.85565 28.963
O 5.95895 25.7924 29.2183
H 6.12581 25.6406 30.1485
H 5.52258 26.6438 29.1886
O 5.53182 27.0471 23.9786
H 6.01479 27.6484 23.4116
H 6.14506 26.3319 24.1476
O 21.2603 12.9641 19.1099
H 21.3709 12.3893 19.8673
H 20.4124 12.7155 18.7418
O 26.8004 27.8078 26.2602
H 27.0128 27.6034 27.1709
H 27.6344 27.732 25.7965
O 24.8069 6.68557 9.37049
H 24.757 7.06785 10.2466
H 24.7977 7.43834 8.77932
O 27.6415 1.91849 31.4666
H 26.8959 1.84585 30.8708
H 27.8477 2.85313 31.4802
O 13.4317 17.4083 22.4804
H 13.2415 16.771 21.7921
H 13.6742 18.2054 22.0092
O 3.80771 16.4527 12.2643
H 4.13517 15.6429 12.6559
H 3.92571 16.3286 11.3225
O 15.7679 31.857 2.70795
H 16.68 0.681157 2.97989
H 15.5831 1.3634 2.19051
O 6.35197 20.7714 17.1145
H 6.72113 21.6515 17.0415
H 5.78578 20.6843 16.3477
O 17.878 17.0844 16.3658
H 18.6467 16.7777 15.8849
H 17.7852 16.4654 17.0899
O 4.67464 16.4309 9.49093
H 5.49732 16.023 9.22075
H 4.85836 17.3703 9.48221
O 31.3865 15.6205 4.1763
H 31.1943 16.0451 3.34025
H 1.06137 15.6733 4.25892
O 26.41 5.63461 15.2358
H 25.7539 5.45765 15.9099
H 26.8043 6.46668 15.4973
O 2.26361 30.7041 11.593
H 1.80467 31.422 11.1568
H 1.6513 30.3997 12.2628
O 16.3508 2.52161 18.6399
H 15.8291 1.90076 19.1483
H 15.9168 3.36448 18.7719
O 3.50477 22.3653 31.7361
H 4.04401 22.5002 1.23802
H 4.02497 21.7833 31.1821
O 4.62209 5.58954 28.1162
H 4.99455 5.3464 28.9637
H 3.81191 6.05066 28.3334
O 3.32405 25.2708 30.4076
H 4.0008 25.7005 29.8845
H 3.80464 24.6617 30.9682
O 16.2624 4.72238 10.1611
H 16.6369 3.87418 10.3989
H 17.0213 5.28358 10.0017
O 21.0252 6.69438 30.027
H 21.2977 7.5731 30.2912
H 21.685 6.41965 29.3904
O 16.6845 17.0058 3.41913
H 16.2062 16.2555 3.77213
H 17.0088 17.4687 4.19164
O 28.946 20.1964 4.27716
H 28.1641 20.0523 4.81016
H 29.648 19.757 4.75716
O 21.8615 10.4763 25.1527
H 22.7162 10.7094 25.5153
H 21.4586 9.92485 25.8233
O 9.69363 1.47463 10.2813
H 9.32067 0.703841 9.85349
H 10.6386 1.3227 10.2682
O 29.4467 11.9016 30.2386
H 29.6746 12.6221 30.8261
H 30.1967 11.8267 29.6486
O 2.70153 1.60654 2.39759
H 2.63985 2.07713 3.22885
H 2.8831 2.28711 1.74944
O 28.326 14.8911 24.1647
H 27.7399 14.8163 24.9178
H 27.9325 14.3286 23.4976
O 2.96348 11.8839 11.9927
H 2.49131 12.316 11.281
H 3.77855 11.5823 11.5917
O 9.99047 23.2879 8.14283
H 10.0008 24.2364 8.01479
H 9.83999 23.174 9.08125
O 2.23555 9.05254 18.229
H 1.2856 8.97277 18.1426
H 2.39392 9.99537 18.2761
O 20.863 16.7198 8.65155
H 20.2551 16.2086 9.18574
H 20.4588 16.7436 7.78422
O 26.2934 3.53715 19.1765
H 25.8586 4.0398 18.4877
H 26.7652 4.19253 19.6904
O 2.12812 28.0626 19.3654
H 2.55127 28.8982 19.5628
H 2.85266 27.4471 19.2542
O 29.38 25.3316 3.68983
H 29.7246 25.3869 4.58115
H 28.6688 25.9719 3.66726
O 9.76977 26.3904 10.9034
H 10.4676 26.861 11.3593
H 10.0702 26.3357 9.99618
O 5.50315 14.7447 1.15397
H 5.51533 13.8801 0.743471
H 5.01541 14.6172 1.96765
O 22.3647 14.7939 30.1827
H 22.4792 15.4848 29.5301
H 22.2434 13.9958 29.6684
O 8.18218 5.58928 28.6777
H 8.29957 4.85567 28.0742
H 8.18714 6.3648 28.1167
O 0.945775 28.5944 21.9993
H 1.21075 28.207 21.1651
H 1.33181 28.0226 22.6628
O 2.94549 14.0022 30.4093
H 3.89514 13.8885 30.3712
H 2.6693 13.4669 31.1532
O 3.6446 25.3263 6.36868
H 4.34902 25.3441 5.72084
H 3.9081 25.9688 7.02746
O 2.20807 15.8202 19.688
H 2.11448 16.4977 20.3576
H 1.82714 16.2075 18.8999
O 10.8475 27.8272 24.5136
H 10.3836 27.2596 25.1291
H 11.0386 27.2631 23.7642
O 17.686 31.163 27.5049
H 18.0115 31.3308 28.3893
H 17.8278 30.2259 27.3708
O 9.29569 14.3747 16.2734
H 10.0535 13.8973 16.6111
H 9.08798 13.9408 15.4459
O 20.8937 9.38072 11.7769
H 20.5925 9.24283 10.8789
H 21.0493 8.49917 12.1159
O 21.8259 20.1311 14.1165
H 21.0965 20.3291 13.5291
H 21.6494 20.6497 14.9015
O 17.1621 4.1911 0.919106
H 16.3511 4.18842 31.6879
H 17.6409 4.95742 0.603277
O 4.27917 4.10553 14.5361
H 3.86746 4.91388 14.2306
H 3.54966 3.56289 14.8354
O 12.8592 26.1974 8.67985
H 11.9436 26.2947 8.41821
H 12.8303 25.623 9.445
O 8.2483 12.7863 31.3802
H 8.64668 13.5728 31.7529
H 8.83461 12.5356 30.6663
O 27.5638 13.0534 9.211
H 28.4852 13.0737 9.46961
H 27.3091 13.9746 9.15814
O 16.9777 22.8248 30.7668
H 16.414 23.3094 30.1638
H 17.5873 23.4807 31.105
O 14.4011 9.99724 31.8136
H 14.9138 9.27805 31.4447
H 13.5497 9.60764 0.73518
O 24.6927 20.9383 0.928822
H 25.0195 20.1242 1.31168
H 25.4098 21.562 1.04319
O 2.27869 3.48844 4.49613
H 2.87858 2.93003 4.99064
H 2.80222 4.25478 4.26188
O 21.0186 28.8199 9.31677
H 20.4793 28.2711 8.74726
H 20.4108 29.1477 9.97967
O 19.5543 20.6331 5.91524
H 20.1156 21.4037 6.00028
H 19.7454 20.2922 5.04147
O 26.6558 10.5311 8.13425
H 27.0155 10.6544 7.25577
H 26.6425 11.4098 8.51357
O 24.963 6.2832 3.20148
H 25.0903 6.71833 2.35846
H 24.9334 6.99737 3.83813
O 19.8877 24.3227 13.0691
H 20.2533 25.1961 12.9287
H 20.2248 23.8014 12.3405
O 27.4846 3.17601 28.2428
H 27.3087 4.02521 28.648
H 26.6622 2.94002 27.8136
O 15.5568 9.40332 18.5119
H 14.8356 9.53312 17.896
H 15.1574 9.5103 19.3751
O 11.4492 2.63895 30.9884
H 12.0107 1.98676 30.5693
H 11.5344 2.46246 0.647989
O 23.9719 22.8566 5.05021
H 24.0267 22.427 5.90383
H 24.0045 22.1388 4.41776
O 27.5423 13.1367 26.5733
H 27.0567 12.8366 27.3416
H 28.4396 13.2513 26.8862
O 7.03315 13.0479 25.1659
H 7.90901 13.4132 25.041
H 6.44704 13.684 24.7561
O 27.3798 16.73 6.78916
H 26.9103 16.4888 5.99067
H 28.2942 16.5156 6.60398
O 14.2777 22.335 28.6846
H 14.0835 21.7146 29.3871
H 14.3794 23.1766 29.129
O 25.1607 18.2788 1.91642
H 24.6992 18.7033 2.6397
H 24.4681 18.0225 1.30742
O 19.9558 23.534 7.3307
H 19.7434 24.0569 8.10385
H 20.3639 22.7423 7.68113
O 29.5237 27.0927 17.6446
H 29.5268 27.9594 18.0509
H 30.2492 27.1174 17.0207
O 13.2579 12.4184 23.483
H 12.5849 12.4387 22.8026
H 12.9841 11.7141 24.0705
O 25.5243 15.5704 25.2584
H 25.1998 16.4454 25.0456
H 25.775 15.6251 26.1806
O 1.37894 25.8469 4.77179
H 0.911382 26.676 4.87328
H 2.09344 25.8951 5.40694
O 7.91747 27.8941 15.9838
H 8.22253 28.7637 16.2427
H 6.97244 27.9953 15.8702
O 1.08565 27.2465 24.6516
H 1.13461 28.1361 25.0014
H 1.89466 26.828 24.9459
O 16.9665 28.3862 4.33995
H 17.3276 27.8376 3.64362
H 16.1631 28.7492 3.96721
O 26.1557 15.7435 9.0039
H 26.6078 16.1242 8.25099
H 25.2309 15.9387 8.85246
O 15.1901 8.54806 12.9849
H 14.3825 8.32445 12.5222
H 15.0795 8.16961 13.8571
O 8.74827 19.9022 8.21752
H 9.64256 20.2178 8.08769
H 8.36819 19.89 7.3391
O 31.3022 15.7529 9.05894
H 31.6395 15.8577 9.94858
H 31.0662 14.8271 8.99933
O 10.9971 20.4842 29.3215
H 11.195 21.3918 29.0904
H 10.4543 20.5495 30.1072
O 19.5358 19.0939 17.5973
H 18.9117 18.4132 17.3454
H 20.1344 18.6581 18.2039
O 19.7032 21.4749 19.1441
H 20.6323 21.3221 19.3165
H 19.4255 20.7143 18.6337
O 15.7625 23.4287 19.7388
H 15.1137 22.9144 20.2192
H 16.5532 22.8895 19.7511
O 11.9144 7.32064 30.1405
H 11.455 7.29173 30.9797
H 11.9522 6.40746 29.856
O 8.93928 17.3088 8.94059
H 8.96229 18.2573 8.81391
H 8.14416 17.0256 8.48913
O 25.9745 9.9266 21.2778
H 25.9285 10.479 20.4974
H 26.6896 9.31625 21.098
O 15.754 13.158 18.2323
H 15.0858 12.6176 18.6539
H 15.9739 12.685 17.4298
O 23.2461 25.4108 24.1782
H 23.4359 26.2148 23.6946
H 22.5239 25.646 24.7607
O 18.5333 31.6837 6.99569
H 18.4527 1.26864 6.58801
H 17.7382 31.2193 6.73402
O 21.4658 18.199 19.4163
H 22.3603 18.4127 19.6815
H 21.4183 17.245 19.4788
O 17.5011 27.2675 30.2366
H 18.1255 27.2457 30.9617
H 16.9904 26.4639 30.3354
O 16.522 23.2965 24.1967
H 16.4751 22.9175 25.0744
H 17.353 23.7714 24.1844
O 13.6797 28.5166 0.849318
H 12.8871 29.0251 0.677981
H 13.9383 28.7668 1.73631
O 12.6317 23.994 17.758
H 12.8292 23.5075 18.5584
H 13.473 24.0659 17.3071
O 16.4658 25.1918 12.9729
H 16.4254 25.133 12.0184
H 15.5509 25.1717 13.2536
O 4.74797 13.4771 5.9105
H 5.65354 13.7432 5.75119
H 4.7827 12.5216 5.95382
O 4.02563 7.88212 16.1165
H 3.35305 7.31159 15.7446
H 3.60602 8.2832 16.8776
O 31.2933 4.15938 2.49509
H 0.608062 3.91166 3.20525
H 30.471 4.37789 2.93346
O 20.2011 9.55903 4.86852
H 20.2448 10.4446 5.2291
H 20.0479 8.99773 5.62859
O 18.7804 20.6549 2.97489
H 18.1651 20.1313 2.46155
H 19.4748 20.0416 3.21568
O 10.3714 18.0404 27.8952
H 10.5978 18.7747 28.4659
H 9.69257 18.3869 27.3161
O 17.3743 6.34182 15.8423
H 18.1446 6.61423 16.3409
H 17.6641 6.34869 14.93
O 24.6668 27.4303 15.6041
H 24.2987 28.2886 15.3941
H 24.9266 27.067 14.7575
O 17.6608 2.42892 11.0602
H 18.3486 2.44459 11.7257
H 17.8601 1.65911 10.5273
O 7.18049 4.48958 11.4093
H 6.98687 5.26982 11.9289
H 7.01672 4.75683 10.5049
O 16.7915 3.45779 15.8632
H 15.8825 3.36224 16.1475
H 17.0021 4.37524 16.0369
O 12.8323 15.4024 15.0472
H 12.8355 15.7151 14.1426
H 12.3646 16.0809 15.5341
O 2.8613 21.666 4.15934
H 2.58434 22.0253 5.00222
H 2.47492 22.2532 3.50957
O 30.7724 13.7614 31.8705
H 31.6601 13.5454 0.878697
H 30.6488 14.6718 0.861703
O 26.1012 11.8807 11.6249
H 25.2462 12.2312 11.3752
H 26.683 12.1342 10.9083
O 20.2683 24.9171 19.7553
H 19.5245 24.4066 20.0751
H 20.9534 24.7787 20.4093
O 12.4068 24.4507 10.9998
H 11.6153 23.9188 11.0813
H 13.0139 24.0772 11.6387
O 19.6719 27.189 7.54047
H 19.5058 27.9202 6.94548
H 18.8281 26.7431 7.6141
O 3.95246 18.4466 28.8109
H 4.49007 18.4824 28.0198
H 3.23797 17.8496 28.5887
O 25.3557 21.0146 22.5056
H 25.2865 21.5027 23.326
H 24.4597 20.9798 22.1707
O 5.95319 12.8393 20.3877
H 6.18144 13.1159 19.5002
H 5.61346 11.9507 20.2822
O 13.6255 20.1898 3.74928
H 13.5086 20.6025 2.89357
H 12.8607 19.6229 3.84889
O 9.24141 12.5202 19.8021
H 8.37139 12.1597 19.9733
H 9.08509 13.446 19.6155
O 30.0598 16.4832 6.47141
H 30.4899 16.075 7.22287
H 30.4565 16.061 5.7094
O 9.34852 30.2619 16.6504
H 9.02367 30.9479 17.2335
H 9.36616 30.6708 15.7852
O 22.2869 3.64888 24.3592
H 21.7744 4.33227 23.9273
H 22.8509 4.12225 24.9708
O 24.975 17.5291 12.6284
H 24.8651 16.5806 12.6961
H 24.3829 17.7895 11.9228
O 0.683312 13.6157 17.6336
H 31.7021 12.9937 16.9536
H 31.5576 13.2781 18.4335
O 11.8199 1.39123 25.1335
H 12.4098 1.83712 24.5257
H 11.9269 1.86154 25.9603
O 19.7029 5.43739 12.5656
H 18.7774 5.68166 12.5726
H 19.7128 4.52621 12.8587
O 20.8319 24.881 30.1043
H 20.1411 24.7084 30.7441
H 21.2738 25.6636 30.4336
O 8.20226 21.8585 14.7494
H 8.2857 20.9057 14.7877
H 7.26609 22.0125 14.6225
O 30.1314 0.62954 10.6871
H 29.92 31.2454 10.0283
H 29.473 1.31277 10.5612
O 1.57989 3.37768 25.5354
H 1.2787 3.8451 24.7562
H 0.776131 3.13085 25.9928
O 28.284 6.17703 24.5463
H 28.6095 6.39822 25.4189
H 27.9347 5.29058 24.6381
O 9.31678 16.5663 11.8266
H 10.1669 16.1306 11.888
H 9.28 16.8954 10.9285
O 14.5346 25.0502 23.8992
H 15.16 24.3924 24.2032
H 14.9222 25.8868 24.1565
O 17.5951 7.75071 2.50883
H 17.2631 7.48525 3.36645
H 16.8157 7.804 1.95571
O 14.8857 19.2624 13.1683
H 15.5184 19.1896 12.4537
H 15.164 18.6026 13.8035
O 20.8458 24.6274 27.3406
H 21.0269 25.4095 26.8193
H 21.0943 24.8706 28.2324
O 22.4985 24.1252 22.0018
H 23.2161 23.8987 21.4102
H 22.9001 24.6918 22.6604
O 17.829 26.028 23.5892
H 18.2452 26.4465 24.3427
H 17.527 26.7564 23.0465
O 28.5954 22.6014 17.8328
H 28.4447 23.4349 18.2787
H 29.4338 22.2933 18.177
O 9.2615 2.05181 20.89
H 8.62108 2.73564 20.6939
H 10.1085 2.45385 20.6973
O 2.67649 16.5462 4.28364
H 2.5971 17.4558 3.99625
H 3.13253 16.5988 5.12357
O 14.6101 12.5154 1.77255
H 15.3559 12.7201 2.33665
H 14.7507 11.6059 1.50955
O 24.1719 2.00061 5.4672
H 23.3182 1.87805 5.052
H 24.0655 1.63748 6.34643
O 29.1088 6.78588 27.6517
H 29.5441 5.98365 27.94
H 29.8213 7.41089 27.5182
O 6.97812 24.4441 10.8137
H 6.20787 25.0099 10.8664
H 6.69964 23.6216 11.2163
O 19.7798 12.5683 8.4588
H 19.1858 11.8328 8.6089
H 20.6543 12.2001 8.58533
O 28.0873 19.6624 21.0375
H 28.7139 19.6105 21.7593
H 28.6093 19.4905 20.2538
O 7.21603 15.7749 26.9141
H 7.83054 16.0115 27.6088
H 7.7075 15.9076 26.1035
O 28.0573 17.4503 29.6687
H 27.6914 17.4756 30.5529
H 28.645 16.6948 29.6737
O 18.4545 6.55251 31.1181
H 19.21 6.33591 30.5718
H 18.7856 7.20106 31.7393
O 7.62926 29.0962 19.0485
H 6.97013 29.3326 18.3959
H 7.80962 28.1708 18.8831
O 16.5349 27.7701 14.4903
H 17.3027 28.0249 15.0021
H 16.6253 26.8239 14.3771
O 29.8316 13.3035 3.89689
H 30.2986 14.1314 3.78393
H 29.6176 13.274 4.82941
O 28.9744 25.0615 19.3806
H 28.1277 25.404 19.6671
H 29.235 25.6366 18.6612
O 15.2904 24.9202 29.7507
H 15.3691 25.5152 29.005
H 14.6404 25.3328 30.3194
O 30.1755 17.7535 26.6009
H 30.1312 18.5705 27.0977
H 31.0892 17.691 26.3227
O 18.3976 3.52889 20.4988
H 17.9419 3.1374 19.7537
H 17.97 3.15087 21.2673
O 18.2816 27.9831 25.458
H 18.7745 28.6526 24.9835
H 18.4399 28.178 26.3817
O 24.036 18.9333 19.7305
H 23.9806 18.5486 18.8558
H 24.7962 18.511 20.1306
O 9.02139 1.66461 30.9493
H 9.89463 2.05501 30.9851
H 8.96987 1.11942 31.7344
O 27.5148 31.086 7.32209
H 26.9774 30.6496 7.98312
H 27.3894 0.742754 7.48943
O 30.2223 26.2607 7.81554
H 30.2319 27.1214 7.39674
H 30.381 25.6442 7.1007
O 7.56001 4.03968 19.3303
H 6.69917 3.62549 19.27
H 7.37065 4.96738 19.4708
O 11.4214 19.5405 13.7419
H 11.7531 18.8511 13.1666
H 11.8516 20.338 13.4335
O 26.9375 0.752799 2.60456
H 27.2282 1.1268 3.43637
H 27.2618 1.36195 1.94122
O 15.9905 30.9426 6.21126
H 15.2387 31.4712 5.94353
H 15.6314 30.0655 6.34569
O 30.4025 31.2517 27.9088
H 30.5662 0.8647 27.5977
H 29.5464 31.0243 27.5459
O 20.9402 14.8086 1.73876
H 21.1094 14.7464 0.798674
H 21.3379 14.0196 2.1069
O 7.01759 4.26158 15.3267
H 7.36436 3.4861 15.7679
H 6.16281 3.98682 14.9949
O 0.680932 19.8061 11.9663
H 31.6935 19.0076 11.5097
H 1.63696 19.8038 11.9191
O 18.7942 12.0709 18.3907
H 18.7078 11.1188 18.3437
H 18.6761 12.3674 17.4882
O 11.902 31.0846 12.4486
H 12.5248 31.6993 12.0608
H 11.4698 30.6758 11.6987
O 11.404 10.5274 15.6664
H 11.0919 10.1134 14.8618
H 10.6151 10.8848 16.074
O 2.95961 5.23853 22.3265
H 2.77508 5.97152 21.7392
H 2.09993 4.96517 22.6466
O 14.5455 19.7136 21.2134
H 14.2695 20.5855 20.9309
H 15.2779 19.8748 21.8084
O 30.5585 16.0219 28.7073
H 30.7919 16.6418 28.0163
H 31.3689 15.8964 29.2009
O 11.9636 6.42322 26.5509
H 11.1414 6.19281 26.9834
H 11.8932 6.03464 25.6789
O 8.33193 7.22717 31.0731
H 8.26854 6.58348 30.3675
H 8.12762 8.06328 30.6543
O 11.2547 9.29286 12.9255
H 10.6269 8.66135 12.5743
H 11.9965 9.25498 12.3217
O 31.0354 21.1771 18.6002
H 30.4822 20.4219 18.7999
H 30.9645 21.7375 19.373
O 10.7 15.8615 7.52497
H 10.246 15.0308 7.66659
H 10.1654 16.5086 7.98514
O 28.5326 28.3506 3.96548
H 28.8986 29.2221 4.11585
H 27.7927 28.2934 4.57009
O 3.06904 26.478 14.6174
H 2.89606 26.8803 13.7662
H 3.33711 25.5829 14.4098
O 16.5526 27.9041 21.7117
H 15.8547 27.483 21.2099
H 16.6889 28.7447 21.2745
O 20.6491 13.3321 25.453
H 21.0393 12.4646 25.5597
H 21.0267 13.6666 24.6394
O 13.2794 1.54625 10.5005
H 13.8903 2.09408 10.9933
H 13.3982 1.81409 9.58928
O 22.5657 28.1081 2.46707
H 23.4741 28.4052 2.41383
H 22.6302 27.17 2.64591
O 29.5628 18.7349 18.7437
H 29.8666 17.894 19.0856
H 29.0895 18.5112 17.9424
O 26.1692 17.5923 21.0215
H 26.5815 16.7306 21.0822
H 26.8647 18.208 21.2526
O 10.1104 24.0442 16.853
H 10.9137 24.1946 17.3514
H 10.1078 23.1027 16.6804
O 16.4636 11.9214 10.6321
H 15.5712 11.6226 10.4575
H 16.3529 12.7661 11.0685
O 13.0139 21.7826 31.4975
H 13.8628 21.6802 0.650606
H 12.6308 20.9055 31.5109
O 16.2791 21.8419 26.8813
H 17.1505 22.0226 27.2338
H 15.6821 22.0446 27.6016
O 21.9058 22.2738 30.7351
H 21.5553 23.1248 30.4723
H 21.4365 22.0595 31.5413
O 10.1516 12.9445 24.8156
H 10.6854 13.6705 24.4929
H 9.97849 12.4106 24.0403
O 1.82553 6.6468 1.72556
H 1.37225 7.39898 1.34479
H 2.5775 6.50363 1.15087
O 1.17983 11.3081 22.1166
H 1.36828 11.4118 23.0493
H 1.67835 12.0063 21.6919
O 21.0572 28.4103 22.0943
H 21.8778 28.0514 22.4318
H 21.306 28.8598 21.2866
O 13.8059 4.48751 11.2375
H 14.6632 4.59167 10.8247
H 13.1802 4.73801 10.5578
O 3.69041 14.8116 16.933
H 3.35265 15.5521 16.4292
H 4.23946 15.211 17.6078
O 14.5154 28.3596 6.2689
H 13.7378 28.9168 6.30255
H 14.594 28.0036 7.15393
O 4.12603 26.0661 18.6938
H 4.76434 25.8397 19.3702
H 4.32952 25.479 17.9657
O 5.47389 25.1509 4.31535
H 5.83894 24.4419 3.78589
H 6.14283 25.8352 4.29409
O 3.16336 11.8074 18.4411
H 3.82906 11.1969 18.7578
H 2.93824 12.3355 19.207
O 17.6354 31.6476 17.4383
H 17.1454 1.17967 17.583
H 18.2959 31.6399 18.1311
O 5.93579 5.61376 2.96005
H 4.99667 5.66016 3.13932
H 6.34379 6.06451 3.69937
O 7.61302 15.3861 2.89673
H 6.90099 15.1172 2.31626
H 8.40698 15.072 2.46408
O 5.17927 28.1692 15.8003
H 4.82745 28.7754 16.4522
H 4.40736 27.7438 15.4269
O 10.9838 15.9574 22.7349
H 11.6753 16.2371 23.3348
H 10.874 16.6949 22.1346
O 24.1653 1.7938 15.1295
H 25.0466 1.42137 15.1563
H 23.9772 2.03099 16.0376
O 16.7631 12.1452 6.40238
H 16.8352 11.9319 5.47204
H 16.9932 13.0729 6.45445
O 17.0071 15.316 30.6016
H 17.4979 16.1369 30.5611
H 17.6336 14.6786 30.9444
O 22.5934 20.9231 21.4512
H 22.1971 21.785 21.579
H 22.6462 20.8218 20.5008
O 6.77261 6.79876 15.4591
H 5.92948 7.13803 15.7595
H 6.76175 5.87448 15.7077
O 23.3391 22.9511 11.6551
H 23.8364 23.6953 11.3159
H 23.8371 22.6574 12.418
O 27.4995 20.3784 11.8328
H 27.1983 19.4902 11.6415
H 27.4116 20.8458 11.0021
O 19.1763 13.8222 3.61569
H 19.4718 14.6092 3.15796
H 19.9009 13.5978 4.19952
O 2.80263 17.1383 15.9347
H 2.14833 17.5235 15.3518
H 2.48265 17.3319 16.8158
O 14.3431 5.43098 1.18643
H 14.9621 6.07241 0.837637
H 13.9243 5.87721 1.92244
O 7.20398 16.7231 31.2357
H 7.55032 16.1965 30.5153
H 6.47472 16.2078 31.5806
O 19.0856 13.4022 15.6499
H 19.6278 14.1636 15.4438
H 19.4675 12.6897 15.1373
O 17.3809 12.61 20.9916
H 18.018 12.4293 21.6827
H 17.895 12.6058 20.1842
O 2.55376 28.0686 27.3955
H 1.60584 28.2013 27.4046
H 2.69737 27.4095 26.7164
O 10.0501 21.6636 22.0491
H 10.8707 21.4198 22.4774
H 9.39182 21.097 22.4515
O 7.26267 5.25507 8.82132
H 7.25826 6.01119 8.23439
H 8.09847 4.82181 8.64828
O 4.49989 13.9209 13.3234
H 3.95602 13.2804 12.8649
H 5.28039 14.0085 12.7763
O 29.0498 23.8244 31.2381
H 29.909 23.4031 31.2196
H 29.2183 24.6976 31.5922
O 26.3363 29.4049 9.14136
H 26.4769 28.4707 8.98723
H 25.4164 29.5491 8.91923
O 30.6745 16.5233 1.80145
H 31.4048 17.0613 1.4957
H 29.9913 17.1535 2.02987
O 17.9752 24.2941 5.56667
H 18.6802 23.975 6.13005
H 17.8554 25.2076 5.82634
O 2.97726 15.936 27.3543
H 2.56737 16.619 26.8235
H 2.49246 15.9501 28.1795
O 10.4352 7.37864 1.41877
H 9.65471 7.21914 0.888043
H 10.1988 8.1199 1.97637
O 2.94452 10.0543 25.9403
H 2.43195 9.25779 26.0783
H 3.78637 9.74332 25.6075
O 11.2525 24.967 14.682
H 11.5846 25.8493 14.8475
H 10.8785 24.6905 15.5186
O 12.084 18.8953 0.74791
H 13.007 18.6616 0.649607
H 11.6156 18.0652 0.660186
O 15.7669 13.9611 14.3561
H 16.5148 13.7845 14.9269
H 15.169 13.2298 14.5107
O 31.3343 11.3402 28.0709
H 30.8991 12.1252 27.7382
H 0.989108 11.557 28.0536
O 10.1001 22.5193 10.7886
H 9.77843 22.8631 11.622
H 10.0604 21.5684 10.8899
O 19.887 7.77988 6.89817
H 19.1509 7.64556 6.30117
H 20.4663 7.03529 6.73623
O 30.4998 25.0543 29.0729
H 29.9889 25.6961 28.5797
H 29.8671 24.6478 29.6652
O 3.0016 16.3793 7.02695
H 2.48364 15.5748 6.99995
H 3.54985 16.2857 7.80598
O 23.2725 29.6269 19.8601
H 24.2046 29.5179 20.0483
H 22.9499 30.1903 20.5635
O 11.8359 14.9829 3.75067
H 11.8403 14.0559 3.98913
H 12.7161 15.2906 3.96735
O 17.3196 17.7952 22.622
H 18.1986 18.0548 22.3457
H 16.9041 17.4679 21.8242
O 15.8872 12.4701 26.5212
H 16.283 12.7199 25.6862
H 15.7978 13.2938 27.0004
O 6.10598 9.4653 3.3397
H 6.2363 8.80547 2.65862
H 6.57527 10.2359 3.02018
O 11.4224 26.6065 5.23736
H 11.2442 27.5446 5.16957
H 12.2716 26.4922 4.81084
O 16.91 12.016 3.54529
H 17.4657 11.2519 3.39174
H 17.5251 12.7356 3.68682
O 10.6475 19.0801 3.54957
H 10.9343 19.0977 2.63651
H 10.6856 19.9943 3.83075
O 18.4849 17.6384 25.267
H 18.4128 17.8393 26.2001
H 19.3751 17.9011 25.0331
O 15.6507 4.14423 29.7901
H 16.4194 4.12419 29.2201
H 15.4424 3.22283 29.9445
O 18.1466 31.4647 9.53895
H 18.4956 31.7377 8.69051
H 17.3974 30.9095 9.32283
O 21.0549 8.39088 1.37118
H 20.2169 8.76045 1.64939
H 21.7128 8.95404 1.77899
O 9.88571 21.3853 17.3291
H 9.30801 20.8507 16.7844
H 9.43505 21.4435 18.1716
O 15.3391 27.3552 8.79294
H 14.4482 27.0101 8.85274
H 15.357 28.0824 9.41503
O 15.6762 25.8418 2.39205
H 16.1791 25.0487 2.57752
H 16.2506 26.3648 1.83275
O 26.807 25.0526 22.2668
H 26.816 25.0105 23.223
H 27.2737 25.8618 22.0578
O 6.44558 13.3583 17.3823
H 5.77576 13.7479 16.8204
H 7.27356 13.5713 16.9518
O 29.506 30.0152 8.71793
H 28.7702 30.4803 8.3198
H 30.2542 30.2269 8.15964
O 23.5963 16.2105 21.0316
H 24.0394 15.5245 21.5308
H 24.3046 16.7671 20.7077
O 27.1416 8.60533 9.89036
H 26.943 8.78367 10.8096
H 26.9456 9.42629 9.43886
O 19.5532 8.52236 9.44536
H 19.8646 8.35855 8.55516
H 18.9566 9.26574 9.35794
O 1.27332 19.1057 3.60829
H 0.706135 18.8517 4.33631
H 1.71027 19.9018 3.91089
O 14.9544 0.706806 27.2953
H 14.2986 31.3617 26.9811
H 15.7406 31.4557 27.4325
O 23.5568 13.7917 26.64
H 24.1223 14.5292 26.4108
H 22.7439 13.9549 26.1615
O 27.7293 30.4974 22.712
H 27.6997 30.9944 23.5295
H 28.1802 31.075 22.0962
O 20.0183 14.4089 12.131
H 19.9912 15.3279 12.3973
H 20.8122 14.0639 12.5397
O 14.4275 26.6243 19.9876
H 13.7008 27.1017 19.5872
H 14.0123 25.8889 20.4381
O 4.48831 19.0048 4.41567
H 5.23874 18.5184 4.0743
H 4.26918 19.6263 3.72142
O 12.2742 9.07656 26.1144
H 12.1914 8.13352 26.2561
H 12.029 9.46761 26.953
O 22.1318 11.3387 8.82762
H 22.5138 11.5747 9.67295
H 22.7654 10.7365 8.43762
O 26.463 1.51841 11.5893
H 26.7649 0.748235 12.0709
H 26.3759 2.19955 12.2562
O 30.9149 13.2846 20.0671
H 30.1327 13.0589 20.5707
H 30.9197 14.2416 20.0473
O 22.6935 2.39963 12.7872
H 22.8856 3.21463 12.3234
H 23.2464 2.43163 13.5678
O 20.9527 6.28217 23.557
H 21.5352 7.03888 23.6227
H 20.578 6.34337 22.6783
O 31.0635 26.8037 12.6071
H 0.670158 27.1695 12.6379
H 30.5503 27.456 12.1303
O 17.5112 19.7329 8.29634
H 18.4204 19.688 8.59232
H 17.2199 20.6093 8.54799
O 12.2203 5.26643 23.9415
H 11.8333 5.29169 23.0663
H 12.4876 4.35491 24.0595
O 27.1393 23.3336 15.2041
H 27.2474 22.7936 15.987
H 26.5278 22.8418 14.6559
O 1.96438 31.1578 22.5357
H 1.40372 30.386 22.4574
H 2.07063 31.2827 23.4787
O 1.68713 18.084 18.0949
H 1.47994 18.9008 18.549
H 0.835226 17.685 17.918
O 6.13671 1.06936 17.0183
H 6.99888 1.06932 17.4341
H 5.65442 1.76453 17.4659
O 6.14837 31.7306 28.5091
H 6.60596 1.16571 28.0627
H 5.39247 31.5447 27.9521
O 23.686 20.6114 9.95212
H 23.5898 21.1851 10.7123
H 24.4031 20.9974 9.44929
O 4.35166 8.00909 9.11116
H 3.71755 8.6745 8.84404
H 3.93949 7.17734 8.87762
O 19.8398 15.6101 27.7126
H 19.2376 16.3482 27.8064
H 19.3893 14.8779 28.1335
O 18.4983 28.381 27.9657
H 19.4161 28.5041 28.2082
H 18.1371 27.834 28.6632
O 11.8704 11.6385 1.25035
H 12.8126 11.7099 1.40388
H 11.5905 12.5331 1.05631
O 5.34914 10.7956 27.5046
H 5.26393 9.96136 27.043
H 4.46746 10.9826 27.827
O 28.4898 25.8366 14.6501
H 28.0256 25.0793 15.0068
H 29.3339 25.835 15.1013
O 21.6707 12.1482 13.2053
H 22.2566 11.6919 13.8093
H 21.0391 11.4819 12.9344
O 27.9021 19.6616 31.7035
H 27.9739 20.3104 1.12624
H 27.6112 20.1622 30.9413
O 2.31787 12.4538 24.4693
H 2.50078 13.1013 25.1502
H 2.49811 11.6107 24.8852
O 21.0219 4.00643 4.18447
H 21.3711 4.75769 3.70499
H 21.4412 3.24725 3.77944
O 18.226 17.701 27.9994
H 18.393 18.0292 28.8829
H 17.2752 17.5989 27.957
O 18.8681 17.2769 12.5439
H 17.9873 17.2735 12.1691
H 19.1551 18.1874 12.4742
O 4.47722 8.09406 11.7629
H 4.36706 8.12334 10.8125
H 4.39047 9.00533 12.0427
O 19.5474 23.796 17.3585
H 19.3057 23.0718 17.9359
H 19.7433 24.521 17.952
O 5.78195 29.2554 25.7881
H 5.64098 28.3458 25.5254
H 6.66193 29.2628 26.1647
O 31.0186 20.8161 31.7028
H 31.4323 21.5119 31.1919
H 30.409 20.4006 31.0929
O 0.601772 2.20576 13.332
H 0.837525 2.24937 12.4053
H 31.1129 2.77387 13.4117
O 2.01114 12.7406 1.4885
H 1.73272 11.9168 1.88857
H 2.52432 13.1764 2.16889
O 10.0906 14.5775 1.53417
H 10.2963 15.3066 0.949063
H 10.6669 14.7047 2.28781
O 1.24676 22.6216 30.3161
H 1.47438 21.9032 29.726
H 1.83253 22.5117 31.0652
O 26.2435 10.0637 16.3439
H 26.4682 10.767 15.7348
H 26.1864 10.4942 17.197
O 2.91143 11.8882 28.7892
H 2.62858 11.0857 29.2275
H 2.85957 12.5626 29.4664
O 7.42596 3.13102 2.53383
H 6.52886 3.05667 2.20837
H 7.52921 4.05937 2.74297
O 3.37954 6.07404 3.75671
H 3.28856 6.74357 4.43471
H 2.8647 6.40586 3.02114
O 19.5275 7.30628 17.0882
H 19.9009 6.88333 17.8615
H 19.2885 8.18386 17.3865
O 2.17927 7.55671 20.5592
H 2.66966 8.23148 21.0287
H 1.99852 7.94366 19.7026
O 30.2282 29.1646 19.6419
H 30.7969 29.4872 18.9428
H 30.8078 28.6524 20.2057
O 2.11521 22.9346 16.9251
H 2.47018 22.1633 17.367
H 2.0908 22.6911 15.9997
O 22.1791 30.9824 17.7672
H 22.6812 30.5988 18.4862
H 22.0819 30.27 17.1354
O 9.57259 3.57344 17.2641
H 9.72245 4.27592 16.6314
H 9.23939 4.01902 18.0429
O 14.9758 6.93855 4.57101
H 14.7144 7.85233 4.68448
H 15.7359 6.83357 5.14325
O 9.99688 16.9063 31.5194
H 9.09576 17.0428 31.8119
H 9.91728 16.6883 30.5907
O 23.9022 18.6225 4.41184