LAMMPS (22 Aug 2018)
Reading data file ...
  orthogonal box = (0 0 0) to (32.5249 32.5249 32.5249)
  4 by 4 by 8 MPI processor grid
  reading atoms ...
  3036 atoms
  scanning bonds ...
  2 = max bonds/atom
  scanning angles ...
  1 = max angles/atom
  reading bonds ...
  2000 bonds
  reading angles ...
  1000 angles
Finding 1-2 1-3 1-4 neighbors ...
  special bond factors lj:   0          0          0         
  special bond factors coul: 0          0          0         
  2 = max # of 1-2 neighbors
  1 = max # of 1-3 neighbors
  1 = max # of 1-4 neighbors
  2 = max # of special neighbors
Setting atom values ...
  1000 settings made for charge
Setting atom values ...
  2000 settings made for charge
Setting atom values ...
  18 settings made for charge
Setting atom values ...
  18 settings made for charge
1000 atoms in group wat
18 atoms in group Na
18 atoms in group Cl
PPPM initialization ...
  extracting TIP4P info from pair style
  using 12-bit tables for long-range coulomb (../kspace.cpp:321)
  G vector (1/distance) = 0.309318
  grid = 30 30 30
  stencil order = 5
  estimated absolute RMS force accuracy = 0.00381678
  estimated relative force accuracy = 1.14941e-05
  using double precision FFTs
  3d grid and FFT values/proc = 2475 256
Neighbor list info ...
  update every 1 steps, delay 0 steps, check yes
  max neighbors/atom: 2000, page size: 100000
  master list distance cutoff = 12.3092
  ghost atom cutoff = 12.3092
  binsize = 6.1546, bins = 6 6 6
  1 neighbor lists, perpetual/occasional/extra = 1 0 0
  (1) pair lj/cut/tip4p/long, perpetual
      attributes: half, newton on
      pair build: half/bin/newton
      stencil: half/bin/3d/newton
      bin: standard
Setting up cg style minimization ...
  Unit style    : real
  Current step  : 0
Per MPI rank memory allocation (min/avg/max) = 8.198 | 8.26 | 8.733 Mbytes
Step Temp E_pair E_mol TotEng Press 
       0            0    304.81359 3.4661043e-05    304.81363    17134.375 
    1000            0   -16104.981    371.92912   -15733.052    -5109.159 
Loop time of 1.40926 on 128 procs for 1000 steps with 3036 atoms

99.2% CPU use with 128 MPI tasks x no OpenMP threads

Minimization stats:
  Stopping criterion = max iterations
  Energy initial, next-to-last, final = 
         304.813627879     -15732.9270853     -15733.0516619
  Force two-norm initial, final = 1135.66 25.767
  Force max component initial, final = 74.5395 7.10043
  Final line search alpha, max atom move = 0.0096375 0.0684305
  Iterations, force evaluations = 1000 1802

MPI task timing breakdown:
Section |  min time  |  avg time  |  max time  |%varavg| %total
---------------------------------------------------------------
Pair    | 0.2207     | 0.36257    | 0.52857    |  11.2 | 25.73
Bond    | 0.0010461  | 0.0016288  | 0.002183   |   0.5 |  0.12
Kspace  | 0.58674    | 0.76059    | 0.89785    |   7.7 | 53.97
Neigh   | 0.0063685  | 0.0064313  | 0.0065146  |   0.0 |  0.46
Comm    | 0.1774     | 0.19576    | 0.21209    |   1.8 | 13.89
Output  | 8.573e-05  | 8.7531e-05 | 9.0158e-05 |   0.0 |  0.01
Modify  | 0          | 0          | 0          |   0.0 |  0.00
Other   |            | 0.08219    |            |       |  5.83

Nlocal:    23.7188 ave 32 max 10 min
Histogram: 1 1 3 12 11 30 26 21 13 10
Nghost:    2689.23 ave 2714 max 2660 min
Histogram: 5 0 12 15 17 28 19 19 10 3
Neighs:    8182.52 ave 12041 max 3383 min
Histogram: 1 2 11 15 25 23 22 15 8 6

Total # of neighbors = 1047362
Ave neighs/atom = 344.981
Ave special neighs/atom = 1.97628
Neighbor list builds = 20
Dangerous builds = 0
Finding SHAKE clusters ...
  0 = # of size 2 clusters
  0 = # of size 3 clusters
  0 = # of size 4 clusters
  1000 = # of frozen angles
PPPM initialization ...
  extracting TIP4P info from pair style
  using 12-bit tables for long-range coulomb (../kspace.cpp:321)
  G vector (1/distance) = 0.309318
  grid = 30 30 30
  stencil order = 5
  estimated absolute RMS force accuracy = 0.00381678
  estimated relative force accuracy = 1.14941e-05
  using double precision FFTs
  3d grid and FFT values/proc = 2475 256
Setting up Verlet run ...
  Unit style    : real
  Current step  : 0
  Time step     : 0.001
Per MPI rank memory allocation (min/avg/max) = 7.949 | 8.107 | 8.217 Mbytes
Step Temp E_pair E_mol TotEng Press Volume 
       0    444.43735   -16104.981            0   -13409.047    2197688.4    34407.173 
   10000    172.04316   -14509.432            0   -13465.828    1423.1326    34253.783 
Loop time of 10.4308 on 128 procs for 10000 steps with 3036 atoms

Performance: 0.083 ns/day, 289.745 hours/ns, 958.697 timesteps/s
99.3% CPU use with 128 MPI tasks x no OpenMP threads

MPI task timing breakdown:
Section |  min time  |  avg time  |  max time  |%varavg| %total
---------------------------------------------------------------
Pair    | 0.95707    | 2.3762     | 3.6625     |  32.7 | 22.78
Bond    | 0.00092945 | 0.0011878  | 0.0018666  |   0.5 |  0.01
Kspace  | 4.1188     | 5.4126     | 6.8038     |  21.6 | 51.89
Neigh   | 0          | 0          | 0          |   0.0 |  0.00
Comm    | 1.0039     | 1.1        | 1.2046     |   4.6 | 10.55
Output  | 8.9708e-05 | 9.4493e-05 | 9.8414e-05 |   0.0 |  0.00
Modify  | 1.1893     | 1.3809     | 1.4671     |   5.7 | 13.24
Other   |            | 0.1597     |            |       |  1.53

Nlocal:    23.7188 ave 32 max 10 min
Histogram: 1 1 3 12 10 31 25 22 14 9
Nghost:    2690.38 ave 2716 max 2658 min
Histogram: 4 2 8 16 16 25 20 20 13 4
Neighs:    8181.99 ave 12280 max 3390 min
Histogram: 1 2 12 15 28 20 22 17 7 4

Total # of neighbors = 1047295
Ave neighs/atom = 344.959
Ave special neighs/atom = 1.97628
Neighbor list builds = 0
Dangerous builds = 0
PPPM initialization ...
  extracting TIP4P info from pair style
  using 12-bit tables for long-range coulomb (../kspace.cpp:321)
  G vector (1/distance) = 0.309426
  grid = 30 30 30
  stencil order = 5
  estimated absolute RMS force accuracy = 0.00379986
  estimated relative force accuracy = 1.14432e-05
  using double precision FFTs
  3d grid and FFT values/proc = 2475 256
Setting up Verlet run ...
  Unit style    : real
  Current step  : 10000
  Time step     : 0.01
Per MPI rank memory allocation (min/avg/max) = 7.949 | 8.111 | 8.217 Mbytes
Step Temp E_pair E_mol TotEng Press Volume 
   10000    172.04316   -14509.432            0   -13465.827   -82870.586    34253.783 
   20000    296.07411    -13405.81            0   -11609.839   -734.38887    34444.249 
Loop time of 8.80922 on 128 procs for 10000 steps with 3036 atoms

Performance: 0.981 ns/day, 24.470 hours/ns, 1135.174 timesteps/s
99.4% CPU use with 128 MPI tasks x no OpenMP threads

MPI task timing breakdown:
Section |  min time  |  avg time  |  max time  |%varavg| %total
---------------------------------------------------------------
Pair    | 1.0949     | 2.352      | 3.4564     |  31.4 | 26.70
Bond    | 0.00093227 | 0.0011747  | 0.0019502  |   0.5 |  0.01
Kspace  | 3.0971     | 4.1934     | 5.4329     |  23.5 | 47.60
Neigh   | 0.0011178  | 0.001157   | 0.001188   |   0.0 |  0.01
Comm    | 0.89094    | 0.99877    | 1.1076     |   4.9 | 11.34
Output  | 9.5107e-05 | 9.9557e-05 | 0.00010422 |   0.0 |  0.00
Modify  | 0.92803    | 1.1221     | 1.2058     |   6.2 | 12.74
Other   |            | 0.1405     |            |       |  1.59

Nlocal:    23.7188 ave 33 max 11 min
Histogram: 1 0 8 13 14 35 27 16 8 6
Nghost:    2692.59 ave 2714 max 2645 min
Histogram: 2 5 8 2 3 11 17 36 28 16
Neighs:    8162.73 ave 11806 max 3479 min
Histogram: 1 3 9 14 22 22 25 15 11 6

Total # of neighbors = 1044829
Ave neighs/atom = 344.147
Ave special neighs/atom = 1.97628
Neighbor list builds = 4
Dangerous builds = 0
PPPM initialization ...
  extracting TIP4P info from pair style
  using 12-bit tables for long-range coulomb (../kspace.cpp:321)
  G vector (1/distance) = 0.309292
  grid = 30 30 30
  stencil order = 5
  estimated absolute RMS force accuracy = 0.00382087
  estimated relative force accuracy = 1.15064e-05
  using double precision FFTs
  3d grid and FFT values/proc = 2475 256
Setting up Verlet run ...
  Unit style    : real
  Current step  : 20000
  Time step     : 0.1
Per MPI rank memory allocation (min/avg/max) = 7.949 | 8.127 | 8.217 Mbytes
Step Temp E_pair E_mol TotEng Press Volume 
   20000    296.07411    -13405.81            0    -11609.84   -12463.095    34444.249 
   30000    305.16686   -13361.534            0   -11510.408    400.35645    31248.152 
Loop time of 9.18151 on 128 procs for 10000 steps with 3036 atoms

Performance: 9.410 ns/day, 2.550 hours/ns, 1089.145 timesteps/s
99.4% CPU use with 128 MPI tasks x no OpenMP threads

MPI task timing breakdown:
Section |  min time  |  avg time  |  max time  |%varavg| %total
---------------------------------------------------------------
Pair    | 0.76601    | 2.5764     | 3.6646     |  26.4 | 28.06
Bond    | 0.000951   | 0.0011933  | 0.001949   |   0.5 |  0.01
Kspace  | 3.1637     | 4.2281     | 6.0165     |  20.4 | 46.05
Neigh   | 0.01472    | 0.014955   | 0.015195   |   0.1 |  0.16
Comm    | 0.95452    | 1.0533     | 1.17       |   4.7 | 11.47
Output  | 8.2915e-05 | 8.5805e-05 | 8.9627e-05 |   0.0 |  0.00
Modify  | 0.96609    | 1.1654     | 1.2485     |   6.1 | 12.69
Other   |            | 0.142      |            |       |  1.55

Nlocal:    23.7188 ave 32 max 8 min
Histogram: 1 0 2 4 6 33 31 29 16 6
Nghost:    2904.73 ave 2944 max 2876 min
Histogram: 6 12 25 21 22 18 9 6 5 4
Neighs:    8974.74 ave 12537 max 3006 min
Histogram: 1 1 0 7 23 27 27 23 14 5

Total # of neighbors = 1148767
Ave neighs/atom = 378.382
Ave special neighs/atom = 1.97628
Neighbor list builds = 50
Dangerous builds = 0
PPPM initialization ...
  extracting TIP4P info from pair style
  using 12-bit tables for long-range coulomb (../kspace.cpp:321)
  G vector (1/distance) = 0.311631
  grid = 30 30 30
  stencil order = 5
  estimated absolute RMS force accuracy = 0.00346871
  estimated relative force accuracy = 1.04459e-05
  using double precision FFTs
  3d grid and FFT values/proc = 2475 256
Setting up Verlet run ...
  Unit style    : real
  Current step  : 30000
  Time step     : 0.2
Per MPI rank memory allocation (min/avg/max) = 7.95 | 8.175 | 8.219 Mbytes
Step Temp E_pair E_mol TotEng Press Volume 
   30000    305.16686   -13361.522            0   -11510.396   -695.95909    31248.152 
   40000    299.28172   -13574.275            0   -11758.847    1313.1425    30273.381 
Loop time of 9.65133 on 128 procs for 10000 steps with 3036 atoms

Performance: 17.904 ns/day, 1.340 hours/ns, 1036.127 timesteps/s
99.4% CPU use with 128 MPI tasks x no OpenMP threads

MPI task timing breakdown:
Section |  min time  |  avg time  |  max time  |%varavg| %total
---------------------------------------------------------------
Pair    | 1.6087     | 2.7134     | 3.5164     |  20.7 | 28.11
Bond    | 0.00095366 | 0.0011862  | 0.0019885  |   0.5 |  0.01
Kspace  | 3.5768     | 4.4109     | 5.5097     |  16.0 | 45.70
Neigh   | 0.029957   | 0.030956   | 0.031637   |   0.2 |  0.32
Comm    | 0.98272    | 1.1034     | 1.2196     |   5.2 | 11.43
Output  | 8.8696e-05 | 9.2525e-05 | 9.652e-05  |   0.0 |  0.00
Modify  | 1.009      | 1.2061     | 1.303      |   6.3 | 12.50
Other   |            | 0.1853     |            |       |  1.92

Nlocal:    23.7188 ave 32 max 16 min
Histogram: 2 5 7 31 24 24 19 8 6 2
Nghost:    2968.16 ave 2998 max 2940 min
Histogram: 6 9 16 15 19 25 15 9 8 6
Neighs:    9264.41 ave 13879 max 5656 min
Histogram: 2 3 20 31 35 18 7 9 2 1

Total # of neighbors = 1185844
Ave neighs/atom = 390.594
Ave special neighs/atom = 1.97628
Neighbor list builds = 98
Dangerous builds = 0
PPPM initialization ...
  extracting TIP4P info from pair style
  using 12-bit tables for long-range coulomb (../kspace.cpp:321)
  G vector (1/distance) = 0.312387
  grid = 30 30 30
  stencil order = 5
  estimated absolute RMS force accuracy = 0.00336146
  estimated relative force accuracy = 1.01229e-05
  using double precision FFTs
  3d grid and FFT values/proc = 2475 256
Setting up Verlet run ...
  Unit style    : real
  Current step  : 40000
  Time step     : 0.5
Per MPI rank memory allocation (min/avg/max) = 7.956 | 8.205 | 8.219 Mbytes
Step Temp E_pair E_mol TotEng Press Volume 
   40000    299.28172   -13574.276            0   -11758.849    563.17666    30273.381 
   50000    288.90049   -13496.512            0   -11744.057    -665.0083    30839.739 
Loop time of 9.59663 on 128 procs for 10000 steps with 3036 atoms

Performance: 45.016 ns/day, 0.533 hours/ns, 1042.033 timesteps/s
99.4% CPU use with 128 MPI tasks x no OpenMP threads

MPI task timing breakdown:
Section |  min time  |  avg time  |  max time  |%varavg| %total
---------------------------------------------------------------
Pair    | 1.9462     | 2.7601     | 3.6439     |  17.7 | 28.76
Bond    | 0.00096038 | 0.0011885  | 0.0019457  |   0.5 |  0.01
Kspace  | 3.3753     | 4.2955     | 5.1012     |  14.0 | 44.76
Neigh   | 0.086385   | 0.087671   | 0.089284   |   0.3 |  0.91
Comm    | 0.98886    | 1.1        | 1.2331     |   5.2 | 11.46
Output  | 8.1552e-05 | 8.3291e-05 | 8.6732e-05 |   0.0 |  0.00
Modify  | 0.96075    | 1.1652     | 1.253      |   6.3 | 12.14
Other   |            | 0.1869     |            |       |  1.95

Nlocal:    23.7188 ave 32 max 14 min
Histogram: 2 2 7 20 13 35 21 19 7 2
Nghost:    2959.54 ave 2993 max 2921 min
Histogram: 4 3 6 20 21 29 20 12 9 4
Neighs:    9150.38 ave 13198 max 5072 min
Histogram: 3 1 15 18 26 30 17 10 5 3

Total # of neighbors = 1171249
Ave neighs/atom = 385.787
Ave special neighs/atom = 1.97628
Neighbor list builds = 242
Dangerous builds = 0
PPPM initialization ...
  extracting TIP4P info from pair style
  using 12-bit tables for long-range coulomb (../kspace.cpp:321)
  G vector (1/distance) = 0.311945
  grid = 30 30 30
  stencil order = 5
  estimated absolute RMS force accuracy = 0.00342377
  estimated relative force accuracy = 1.03106e-05
  using double precision FFTs
  3d grid and FFT values/proc = 2475 256
Setting up Verlet run ...
  Unit style    : real
  Current step  : 0
  Time step     : 2
Per MPI rank memory allocation (min/avg/max) = 8.201 | 8.213 | 8.219 Mbytes
Step Temp E_pair E_mol TotEng Press Volume 
       0    288.90049   -13496.513            0   -11744.058   -1212.8594    30839.739 
   10000    289.70579   -13544.365            0   -11787.024    318.16102    30406.682 
   20000    296.15321   -13611.567            0   -11815.117    474.19361    30755.866 
   30000    306.97146   -13649.991            0   -11787.918    103.78668    30604.153 
   40000    299.35519   -13603.266            0   -11787.393    21.578992    30117.326 
   50000    295.69687   -13591.178            0   -11797.496    227.03463    30497.357 
   60000    300.11701   -13614.204            0    -11793.71    15.387821    30458.505 
   70000    297.95234    -13556.13            0   -11748.766    171.64227    30520.458 
   80000    295.05755   -13565.121            0   -11775.317    -220.2776    31028.418 
   90000    299.38023   -13648.067            0   -11832.042   -245.34849    30716.794 
  100000    299.30721   -13514.317            0   -11698.735   -459.23286    30977.949 
  110000    301.38728    -13596.24            0    -11768.04   -424.00067    30223.296 
  120000    296.05389   -13560.925            0   -11765.078   -174.32729    30339.187 
  130000    299.00254   -13547.602            0   -11733.868   -246.16089    30557.235 
  140000    295.67686   -13597.244            0   -11803.683    310.34732    30597.966 
  150000    293.88207   -13650.928            0   -11868.254    318.79091    30060.269 
  160000    298.11172   -13546.014            0   -11737.684    607.42238    30408.451 
  170000    305.42736   -13643.742            0   -11791.035   -560.76613      30878.6 
  180000    294.80663   -13589.688            0   -11801.406    74.602154    30338.247 
  190000    294.66097   -13565.059            0   -11777.661   -351.69197    30712.925 
  200000     305.4303   -13633.609            0   -11780.884    179.97046    31005.718 
  210000    284.70052   -13632.279            0   -11905.301   -316.66053     30600.72 
  220000    307.97426   -13576.079            0   -11707.923    23.057401    30764.204 
  230000    291.64902   -13618.256            0   -11849.128    1527.8688    30275.022 
  240000    293.49131   -13612.158            0   -11831.855    720.47148    30374.887 
  250000    299.13192   -13632.568            0   -11818.049    790.29652     30452.77 
  260000    298.59371   -13621.433            0   -11810.179    1029.0264    30222.911 
  270000    302.70668   -13598.498            0   -11762.295    2.2147875    30412.808 
  280000     288.8044   -13607.646            0   -11855.773   -423.37256    30671.559 
  290000    305.54724    -13456.49            0   -11603.056    1033.7742    30537.929 
  300000    293.42091   -13517.515            0   -11737.639   -802.29434    30760.974 
  310000    305.62584   -13666.786            0   -11812.875   -336.39239    30601.797 
  320000     297.8192   -13561.951            0   -11755.395   -20.951946    30515.644 
  330000     298.6809   -13691.051            0   -11879.268   -212.23845    30444.583 
  340000    305.55097   -13560.763            0   -11707.306   -283.97414     30874.74 
  350000    299.70586   -13535.564            0   -11717.563    550.03869    30323.658 
  360000    294.14892   -13599.268            0   -11814.976   -102.74695    30287.535 
  370000    297.03253   -13661.005            0   -11859.221    385.94021    30484.715 
  380000    295.40679   -13594.126            0   -11802.204   -33.990513    30096.961 
  390000    312.91327   -13718.872            0   -11820.756    360.36873    30772.509 
  400000     297.7369   -13599.742            0   -11793.685    558.08558    30361.775 
  410000    295.51431   -13531.905            0   -11739.331   -156.94189    30812.471 
  420000    290.71145   -13543.066            0   -11779.625    86.248882      30796.8 
  430000    299.19003    -13607.99            0   -11793.119    417.55397    30638.574 
  440000    304.68805    -13707.66            0   -11859.438    204.01379    30216.397 
  450000    302.76335   -13607.124            0   -11770.577    282.27859    30739.318 
  460000    295.03605   -13598.271            0   -11808.598    78.033859    30566.604 
  470000    300.19484   -13559.568            0   -11738.602   -541.47254    31146.906 
  480000    291.16667   -13580.866            0   -11814.664   -221.56633    30787.119 
  490000    302.74949   -13574.069            0   -11737.606    347.68371    30903.909 
  500000     298.4143   -13581.978            0   -11771.812   -504.81888    30757.684 
  510000    296.75272   -13538.751            0   -11738.664    78.723202    30813.372 
  520000     295.3663   -13548.546            0   -11756.869    76.913511    30591.667 
  530000    297.41833    -13650.46            0   -11846.335   -88.354353    30546.927 
  540000    296.64198   -13502.182            0   -11702.767    239.45032    30107.783 
  550000     285.7983   -13621.796            0   -11888.158    681.49002    29987.092 
  560000    292.62063   -13650.487            0   -11875.465   -468.61838    30087.438 
  570000    301.59935   -13624.147            0    -11794.66    242.25521    30673.074 
  580000    293.87053   -13544.767            0   -11762.164     69.24244    30847.949 
  590000    307.73305   -13600.966            0   -11734.273   -378.68923    30887.047 
  600000    297.06405   -13526.636            0   -11724.661   -10.123819    30374.828 
  610000    298.93762   -13646.026            0   -11832.686    149.84208    30332.356 
  620000    297.11596   -13574.639            0   -11772.349   -49.779324    30845.878 
  630000    290.42279   -13599.267            0   -11837.577     410.2833    30495.901 
  640000    300.52004   -13553.634            0   -11730.695   -718.44664     30927.93 
  650000    299.83172   -13505.717            0   -11686.954    346.20761    30820.595 
  660000    298.31447   -13591.346            0   -11781.786   -44.149343    30645.008 
  670000    297.05431   -13539.152            0   -11737.236    987.52329    30737.958 
  680000    293.64075   -13493.762            0   -11712.553   -718.56296    30717.731 
  690000    292.89763   -13576.962            0    -11800.26    211.48827    30791.537 
  700000    303.25191    -13553.92            0   -11714.409   -500.29207    30740.487 
  710000    294.45213     -13622.3            0   -11836.168    519.71043    30357.226 
  720000    302.43492   -13552.279            0   -11717.725   -515.09181    30946.296 
  730000    294.41486   -13619.331            0   -11833.426   -342.35677    30304.833 
  740000    298.96165   -13564.863            0   -11751.377   -211.63283    30244.404 
  750000    297.50873   -13547.887            0   -11743.214     -480.703     30364.95 
  760000    294.02245   -13566.859            0   -11783.334    1079.5193     30687.15 
  770000    291.45881   -13567.021            0   -11799.047   -575.96573    30933.914 
  780000    288.52799   -13690.872            0   -11940.677    392.09929    30627.291 
  790000    300.29732   -13604.639            0   -11783.051    326.24562    30622.167 
  800000    310.13037   -13588.029            0   -11706.794    441.47312    30622.079 
  810000     297.5414   -13627.244            0   -11822.373    836.19644    30188.223 
  820000    287.01058   -13537.427            0   -11796.435   -342.37558    30893.049 
  830000    293.97398   -13576.105            0   -11792.874    1053.1407    30468.064 
  840000    301.81985     -13591.8            0   -11760.976    259.01364    30826.115 
  850000    288.12412   -13647.772            0   -11900.026     641.4699    30645.049 
  860000    303.09322   -13568.058            0    -11729.51    387.25176    30538.861 
  870000    298.65318   -13647.082            0   -11835.467   -420.55949    30712.848 
  880000    303.09722   -13681.402            0    -11842.83    807.67315    30285.292 
  890000    293.36254   -13688.435            0   -11908.913    206.11156    30556.174 
  900000      294.086   -13658.516            0   -11874.606    359.25319    30155.247 
  910000    302.63918   -13466.062            0   -11630.268   -964.52381     30966.62 
  920000    292.02942   -13458.808            0   -11687.372    -1004.652    30804.971 
  930000    292.20972   -13610.233            0   -11837.704   -731.50676    30464.499 
  940000    293.61412   -13711.222            0   -11930.174    158.78746    30433.768 
  950000    296.95695   -13518.221            0   -11716.895   -121.72605    30843.674 
  960000    288.35544   -13601.711            0   -11852.562    914.73076    30036.425 
  970000    291.58937   -13585.904            0   -11817.138   -325.78785    30541.583 
  980000    297.88266   -13622.715            0   -11815.775   -467.23412    31163.409 
  990000    297.29983   -13655.509            0   -11852.104    -277.9335    31015.529 
 1000000    293.38219   -13551.528            0   -11771.887   -2010.3078    31105.262 
 1010000    307.63634   -13579.805            0   -11713.699    184.21618    30365.983 
 1020000    307.87509   -13652.968            0   -11785.413    314.32762    30439.193 
 1030000    304.10584   -13535.972            0   -11691.281   -538.80384    30901.173 
 1040000    313.61945    -13648.61            0   -11746.211    578.95489    30683.564 
 1050000    294.74895    -13658.46            0   -11870.528     314.5813    30827.283 
 1060000    299.68679   -13603.563            0   -11785.678    718.50397    30245.795 
 1070000    294.62279   -13611.667            0   -11824.501    506.59639     30017.54 
 1080000    295.36333    -13534.21            0   -11742.551   -454.82791     31077.91 
 1090000    297.17394   -13627.373            0   -11824.731   -933.78654    31021.794 
 1100000    298.57196   -13636.546            0   -11825.424   -221.42884    30697.502 
 1110000    298.46718   -13676.547            0   -11866.061   -443.29334    30777.121 
 1120000    298.87311    -13508.13            0   -11695.181   -508.86106    30893.585 
 1130000     294.1529   -13482.117            0   -11697.801    34.239159    30842.003 
 1140000    297.15115   -13635.353            0   -11832.849   -477.53268    30650.865 
 1150000    296.71923   -13566.468            0   -11766.585   -514.61638      30861.8 
 1160000    287.14441   -13694.784            0   -11952.981   -730.36426    30714.767 
 1170000    312.21427   -13647.122            0   -11753.246   -445.90181    31199.033 
 1180000    287.12767   -13488.312            0    -11746.61   -723.99856    31406.419 
 1190000    292.78929   -13611.695            0    -11835.65    453.61128    30545.385 
 1200000    300.08926    -13593.09            0   -11772.764   -19.765079    30576.813 
 1210000    290.25699   -13587.232            0   -11826.548   -59.117965    30334.785 
 1220000    306.02981   -13507.853            0   -11651.492    422.10089    30573.166 
 1230000    301.83192   -13574.688            0   -11743.791   -1028.9909    30882.101 
 1240000    301.47612   -13519.266            0   -11690.528   -765.12628    30899.159 
 1250000     290.1243   -13529.903            0   -11770.024   -879.40736    30875.765 
 1260000     293.5274    -13650.01            0   -11869.488   -466.78735    30781.071 
 1270000    299.61631   -13560.561            0   -11743.103    639.00506    30098.478 
 1280000    289.22742   -13552.635            0   -11798.197    265.04056    30185.231 
 1290000    290.36706   -13692.823            0   -11931.471    109.08178    30734.213 
 1300000    291.77951   -13521.133            0   -11751.214   -244.07434    30640.855 
 1310000    285.85986   -13743.528            0   -12009.517   -511.40429    30394.565 
 1320000    295.10889   -13674.108            0   -11883.993    791.76938    30215.587 
 1330000    307.00328   -13543.242            0   -11680.976    232.72162    30279.362 
 1340000    297.66435   -13475.258            0   -11669.642   -150.64578    30535.726 
 1350000    301.79003   -13606.167            0   -11775.524    692.91514    30343.176 
 1360000    287.13975   -13580.531            0   -11838.756     197.1443    30942.843 
 1370000    298.62007   -13565.937            0   -11754.523    552.41679    30302.949 
 1380000    300.20944   -13593.713            0   -11772.658    912.13115    30606.519 
 1390000    299.53744    -13672.36            0   -11855.381    577.64846    30339.982 
 1400000    306.26366    -13596.13            0    -11738.35    238.74167    31134.906 
 1410000    311.98265   -13575.743            0   -11683.272    245.63889    30281.281 
 1420000    296.74857   -13692.233            0   -11892.171    67.350246    30237.862 
 1430000    303.45692   -13565.952            0   -11725.198   -313.79594    30963.747 
 1440000    296.43983   -13548.147            0   -11749.959    143.77121     30411.02 
 1450000     294.5054   -13621.629            0   -11835.174   -153.10712    31238.421 
 1460000    293.52427   -13581.173            0    -11800.67   -137.50019     30904.72 
 1470000    301.54061   -13554.631            0   -11725.501    1176.2459    30353.479 
 1480000    297.61351   -13666.335            0   -11861.027   -13.066056      30842.3 
 1490000    289.58069   -13565.941            0   -11809.359   -779.16303    31369.791 
 1500000    292.59675   -13624.707            0    -11849.83    609.20266    30429.698 
 1510000    292.92784   -13658.145            0    -11881.26     238.5021     31038.69 
 1520000    298.91242   -13541.153            0   -11727.966   -401.68504     31168.27 
 1530000     298.4515   -13561.284            0   -11750.892    504.41402    30535.317 
 1540000    296.31973    -13639.32            0    -11841.86   -692.97764    30722.142 
 1550000    301.50493   -13535.253            0    -11706.34     958.1259    30287.351 
 1560000    300.86323   -13539.803            0   -11714.782    -386.1533    30388.321 
 1570000     294.3937    -13538.96            0   -11753.183   -427.35595    30871.131 
 1580000    306.83171   -13586.986            0    -11725.76    79.027805    30822.646 
 1590000     293.3233   -13607.365            0   -11828.081   -42.843683    30829.423 
 1600000    288.74746   -13588.947            0    -11837.42   -1000.6091    31053.891 
 1610000    299.51431   -13504.349            0   -11687.511   -387.41492    30726.145 
 1620000    298.26282   -13655.925            0   -11846.678   -108.84567    30962.247 
 1630000    299.41054   -13568.971            0   -11752.762    519.38976    30441.791 
 1640000    295.56468   -13550.817            0   -11757.937   -70.796873    30338.336 
 1650000    302.73755   -13612.864            0   -11776.474   -331.10262    30909.047 
 1660000    299.69597   -13582.733            0   -11764.793    673.01583    30188.645 
 1670000    299.21605   -13658.802            0   -11843.773    190.46402    30598.279 
 1680000    293.95445    -13624.57            0   -11841.457    785.45336    30052.049 
 1690000    293.74316   -13608.535            0   -11826.704    441.51606    30399.959 
 1700000    298.31368   -13534.419            0   -11724.864     167.2165    30452.925 
 1710000    288.19137   -13535.118            0   -11786.964   -436.96519    30514.195 
 1720000    297.48708   -13696.453            0   -11891.912   -256.85006    30340.698 
 1730000    294.48381   -13643.733            0   -11857.409      580.761    30336.011 
 1740000    296.12507   -13538.324            0   -11742.045    88.885905     30820.74 
 1750000     289.8576   -13636.685            0   -11878.424     1040.576    30403.567 
 1760000    295.40787   -13593.174            0   -11801.245   -249.47176    30875.318 
 1770000    296.18522   -13679.754            0    -11883.11    307.35965    30054.435 
 1780000    295.93736   -13624.352            0   -11829.212   -146.89747    30939.883 
 1790000    295.63873   -13647.325            0   -11853.995    488.29476     30533.17 
 1800000    295.07939   -13666.681            0   -11876.744    -669.2277    30373.605 
 1810000    291.42404   -13589.856            0   -11822.093   -644.03355    30794.794 
 1820000    292.17365   -13620.859            0   -11848.549    609.33134     30290.53 
 1830000    295.22659   -13592.101            0   -11801.272   -68.665499    30527.673 
 1840000    299.46601   -13562.746            0     -11746.2   -415.49485    30540.016 
 1850000     294.1948   -13591.113            0   -11806.542   -172.32311    30558.616 
 1860000    299.81211    -13600.39            0   -11781.745    226.85481    30309.299 
 1870000    295.80777   -13594.126            0   -11799.772     480.2618    30816.394 
 1880000    292.95201   -13593.888            0   -11816.856   -114.73418    30656.757 
 1890000     294.1824   -13606.982            0   -11822.486   -14.226151    30440.416 
 1900000    284.03425   -13549.372            0   -11826.435   -922.94988    31006.564 
 1910000    297.23294   -13672.416            0   -11869.417   -906.98387    31207.818 
 1920000    297.25687    -13568.16            0   -11765.015   -1093.5797    30912.813 
 1930000    303.37572   -13574.149            0   -11733.887   -163.59202    30119.802 
 1940000    297.51911   -13650.135            0   -11845.399   -257.91329    30737.851 
 1950000    298.20203   -13637.309            0   -11828.431    -216.1689    30890.166 
 1960000    301.56069   -13663.312            0   -11834.061   -856.89868    30834.245 
 1970000    297.95179   -13595.231            0   -11787.871    243.25673     30653.75 
 1980000    293.51031   -13556.832            0   -11776.414   -582.97959    30876.205 
 1990000    297.79175   -13549.993            0   -11743.604   -24.998546    30640.757 
 2000000    297.47966   -13617.638            0   -11813.142    135.07261    30909.143 
 2010000     304.8773   -13634.128            0   -11784.758   -827.60145    30556.999 
 2020000    297.51627   -13573.601            0   -11768.883    137.26383    30589.734 
 2030000    298.64541    -13521.42            0   -11709.853     1679.213     30337.52 
 2040000    296.38373   -13573.164            0   -11775.316    118.46149    30204.979 
 2050000    304.84666   -13589.871            0   -11740.687   -315.38377    30649.385 
 2060000    297.74132   -13558.714            0   -11752.631   -799.04268     30694.93 
 2070000     291.3331   -13565.789            0   -11798.578    141.03676    30663.789 
 2080000    290.95618   -13510.314            0   -11745.389   -235.19377    30922.112 
 2090000    293.19135   -13473.735            0   -11695.252   -953.20978    30758.232 
 2100000    298.26381   -13650.335            0   -11841.082    307.14577    30626.111 
 2110000     298.1777   -13648.689            0   -11839.958    -255.8524    30448.219 
 2120000      301.196   -13591.732            0   -11764.693     697.0113    30402.915 
 2130000    283.74875    -13540.45            0   -11819.245   -613.69814    30663.797 
 2140000     304.8623   -13696.375            0   -11847.096    448.82394    30234.534 
 2150000    292.32276   -13612.168            0   -11838.954      291.048    30764.785 
 2160000    293.36149   -13590.677            0   -11811.161    -371.0515    30778.868 
 2170000    304.52705   -13583.742            0   -11736.496    363.95231    30502.547 
 2180000    293.97925   -13549.123            0    -11765.86   -1028.1559    30480.654 
 2190000    302.67154    -13572.57            0    -11736.58   -361.75471    30651.834 
 2200000    295.89689   -13584.502            0   -11789.607   -397.02177    30825.605 
 2210000    297.99929   -13538.636            0   -11730.988   -596.53948    30675.552 
 2220000    291.61386   -13592.082            0   -11823.167    182.49523    30649.788 
 2230000    293.96918   -13657.069            0   -11873.867   -885.46174    30644.331 
 2240000    302.47232   -13548.108            0   -11713.326   -1174.4635    30914.263 
 2250000    293.79479   -13431.638            0   -11649.494   -678.38228    31032.498 
 2260000     292.1863   -13498.573            0   -11726.186    452.55762    30648.014 
 2270000    292.48207   -13624.677            0   -11850.496    231.67926    30578.407 
 2280000    294.26561   -13531.186            0   -11746.186   -1022.8564    31019.787 
 2290000    306.45152    -13658.67            0   -11799.751    363.16349    30497.116 
 2300000    300.99451   -13581.068            0    -11755.25    606.67766    30570.514 
 2310000    298.63027   -13648.701            0   -11837.226   -402.35062    30504.451 
 2320000    294.94768   -13573.297            0    -11784.16     711.9053    30622.818 
 2330000    294.05597   -13529.377            0   -11745.649    470.21274    30634.828 
 2340000    286.72534   -13554.322            0   -11815.061    283.69485    31264.965 
 2350000    298.93537   -13535.404            0   -11722.077   -731.77705    30878.332 
 2360000    296.03847   -13615.123            0   -11819.369   -94.358966    30836.148 
 2370000    305.03678   -13626.271            0   -11775.934   -249.80334    30579.712 
 2380000     296.7142   -13695.492            0   -11895.639    910.77886    30468.189 
 2390000    299.24028   -13528.453            0   -11713.277   -12.567396    30231.014 
 2400000    297.14399   -13639.312            0   -11836.851    83.208274    30720.934 
 2410000    295.67025   -13631.741            0    -11838.22    227.59998    30506.786 
 2420000    301.76374   -13688.686            0   -11858.203    813.13636    29973.901 
 2430000    302.01898   -13569.296            0   -11737.264   -239.05976    30262.527 
 2440000    293.83182   -13630.752            0   -11848.383    85.466512    30669.277 
 2450000    303.16209   -13585.397            0   -11746.431   -823.00379    31206.573 
 2460000    298.18885   -13683.605            0   -11874.807   -885.11361    30698.536 
 2470000    296.39238   -13624.742            0   -11826.841   -66.994537    30528.162 
 2480000    292.89987   -13502.734            0   -11726.019   -346.89566    30807.855 
 2490000    294.77385   -13584.461            0   -11796.378    729.45691    30248.771 
 2500000    299.08193    -13636.16            0   -11821.944    229.55416    30519.867 
 2510000     296.8958   -13597.951            0   -11796.997    642.46135    30300.925 
 2520000    305.53433   -13541.222            0   -11687.866    990.75837    30461.046 
 2530000    302.87765   -13604.847            0   -11767.607    1006.5789    30429.105 
 2540000    309.43782    -13571.79            0   -11694.756    213.53934    30399.242 
 2550000    309.22043   -13659.322            0   -11783.607   -21.586348    30844.726 
 2560000    296.76715   -13590.164            0    -11789.99    75.950203    30486.787 
 2570000    292.77649    -13621.83            0   -11845.863    868.02008    30463.554 
 2580000     304.6258   -13507.402            0   -11659.557    761.94055    30111.693 
 2590000    306.09138   -13523.929            0   -11667.194    471.51805    30239.968 
 2600000    293.97998    -13648.71            0   -11865.442   -123.04931    30494.425 
 2610000    303.15563   -13627.088            0   -11788.162   -435.27498    30682.681 
 2620000    291.94578   -13581.243            0   -11810.315   -577.09666    30477.239 
 2630000    304.22875   -13614.405            0   -11768.969   -254.08994    30462.004 
 2640000    293.93233   -13620.501            0   -11837.523    1058.1052     30109.14 
 2650000    296.69355   -13519.898            0    -11720.17    -161.0102    30635.368 
 2660000    299.54952   -13619.084            0   -11802.032    -700.1527    30711.518 
 2670000    305.39034   -13530.308            0   -11677.826    9.9842014    30444.208 
 2680000    291.06061   -13713.139            0    -11947.58    69.983448    30547.327 
 2690000     301.7575   -13609.279            0   -11778.834   -226.91543     30839.74 
 2700000    300.79304   -13507.255            0    -11682.66    337.48995    30507.285 
 2710000    300.13647    -13607.31            0   -11786.697    376.14032    30487.679 
 2720000    306.66419   -13547.322            0   -11687.113    68.252422    30998.574 
 2730000    285.84271   -13697.976            0   -11964.069    538.11935    30447.222 
 2740000    295.95786   -13628.653            0   -11833.388     307.9235    30851.363 
 2750000    292.91897   -13557.694            0   -11780.863    104.61286    30329.016 
 2760000    297.20274   -13631.104            0   -11828.288    -425.4909    30426.005 
 2770000     303.4576   -13649.706            0   -11808.948     477.6569    30689.048 
 2780000    287.31364   -13652.891            0   -11910.061   -444.59646    30845.424 
 2790000    299.04734     -13587.5            0   -11773.495    158.75861    30128.175 
 2800000    302.31084   -13556.545            0   -11722.743    755.12333     30180.34 
 2810000    286.56168   -13553.464            0   -11815.196   -550.02417    30529.512 
 2820000    292.18428   -13598.131            0   -11825.756   -232.53837    30634.744 
 2830000     307.2641    -13656.39            0   -11792.541    484.82808    30445.327 
 2840000    296.77258   -13590.419            0   -11790.212   -709.03771    30863.638 
 2850000    309.56526   -13583.407            0     -11705.6    920.14646    30650.213 
 2860000    302.12264   -13695.968            0   -11863.308   -223.24782    30618.227 
 2870000    299.68086   -13561.277            0   -11743.429   -136.89861    30817.148 
 2880000    293.99435   -13693.648            0   -11910.293   -436.67097    30822.385 
 2890000    294.51637    -13469.47            0   -11682.949    157.54952    30548.075 
 2900000      295.066   -13631.015            0    -11841.16   -199.15477    30594.633 
 2910000    303.58073   -13615.605            0     -11774.1    725.12937    30362.198 
 2920000    299.35775   -13590.998            0   -11775.109    382.23368    30587.356 
 2930000    300.78614    -13520.17            0   -11695.617   -698.29745    30871.803 
 2940000    297.51164    -13489.56            0   -11684.869   -202.51587    30729.166 
 2950000    295.37431   -13543.677            0   -11751.952     8.299641    30241.718 
 2960000    301.41001   -13559.526            0   -11731.188    261.52314    30545.324 
 2970000    298.72074   -13697.557            0   -11885.533    365.11042    30433.646 
 2980000     298.5551   -13594.481            0   -11783.461   -373.52561    30499.802 
 2990000    305.47626    -13620.94            0   -11767.936   -345.07741    30893.283 
 3000000     301.2485       -13671            0   -11843.642    107.45883    30614.889 
 3010000    296.53797   -13572.276            0   -11773.492     129.7128    30373.911 
 3020000    291.23422   -13623.532            0    -11856.92    651.59567    30364.812 
 3030000    293.65434   -13628.052            0    -11846.76    266.85225    30826.895 
 3040000    291.49149   -13601.509            0   -11833.337    -165.8159     30446.07 
 3050000     303.1492   -13603.864            0   -11764.976   -428.73403    30839.429 
 3060000    295.22776   -13599.746            0    -11808.91   -434.15435    31202.785 
 3070000    306.78684   -13623.873            0    -11762.92    -76.59746    30538.905 
 3080000    298.36157   -13616.399            0   -11806.554   -114.81816    30611.368 
 3090000    306.85785    -13628.95            0   -11767.566    1106.6409    30070.032 
 3100000    302.66384   -13592.124            0   -11756.181   -66.447023     30594.45 
 3110000     298.7514   -13546.482            0   -11734.271    477.56314     30455.97 
 3120000    304.29539   -13613.073            0   -11767.233   -105.82308    30847.198 
 3130000     292.3172   -13528.305            0   -11755.124    180.09076    30368.984 
 3140000    295.77483   -13565.298            0   -11771.143   -355.40515     30195.63 
 3150000    308.20307   -13583.241            0   -11713.697     720.6024    30481.553 
 3160000    301.11907   -13574.613            0   -11748.041   -122.63903    30245.053 
 3170000    283.28684   -13647.813            0    -11929.41    52.266528    30486.932 
 3180000    296.01667   -13583.417            0   -11787.795   -1101.5062    30917.131 
 3190000    295.51796   -13625.839            0   -11833.243    31.492259    30571.722 
 3200000     299.9636   -13646.207            0   -11826.643    534.93628    30426.823 
 3210000    304.30916   -13611.938            0   -11766.014    30.131747    30822.819 
 3220000    298.46457   -13589.526            0   -11779.056   -409.83369     30787.06 
 3230000    296.45653   -13552.824            0   -11754.533    120.67664    30718.747 
 3240000     292.8939   -13576.045            0   -11799.366   -60.897682    30343.205 
 3250000    297.40777   -13619.027            0   -11814.967    215.31284    30754.213 
 3260000    301.33629   -13524.004            0   -11696.114   -475.25047     30785.29 
 3270000    294.96349   -13557.953            0    -11768.72    198.24752    30568.513 
 3280000     293.4666   -13494.485            0   -11714.332    128.25462    30301.043 
 3290000    292.31291   -13655.439            0   -11882.284    109.66461    30717.332 
 3300000    290.00801   -13626.958            0   -11867.785   -721.88268    30715.389 
 3310000    298.23667   -13531.883            0   -11722.794    54.591186     30511.35 
 3320000    297.49349   -13694.132            0   -11889.552   -194.90523     30671.05 
 3330000    288.36888   -13600.602            0   -11851.372    421.98386    30556.887 
 3340000    298.25841   -13619.684            0   -11810.464    168.24568    30299.498 
 3350000    307.12694   -13506.673            0   -11643.657    50.226481    30888.547 
 3360000    298.79031   -13556.557            0    -11744.11    116.65354    30695.144 
 3370000    294.98388   -13652.951            0   -11863.594    1256.9467    30338.746 
 3380000     294.6806   -13595.317            0   -11807.799   -50.358642    30501.304 
 3390000    294.38411   -13587.841            0   -11802.122    30.425726    30533.221 
 3400000     307.1095   -13623.765            0   -11760.854   -100.85022    30849.515 
 3410000    297.35689   -13635.677            0   -11831.926   -354.56587    30671.674 
 3420000    304.87699   -13573.115            0   -11723.747    105.85048    30162.447 
 3430000    298.41418   -13501.494            0   -11691.329    757.64746    30360.423 
 3440000    294.07252    -13679.26            0   -11895.431    580.65542    30428.139 
 3450000    289.95059   -13518.654            0   -11759.829   -781.01981    30948.547 
 3460000    305.21211   -13608.372            0   -11756.971    240.82571    30679.329 
 3470000    299.39773   -13550.373            0   -11734.241    311.31962    30621.679 
 3480000    289.75598   -13665.555            0    -11907.91    652.14878    30194.256 
 3490000    289.89801    -13522.81            0   -11764.304   -552.51063    30364.427 
 3500000    302.53651   -13589.653            0   -11754.482    504.51186    30718.788 
 3510000     294.7575   -13561.314            0    -11773.33    -150.8046    30448.061 
 3520000    294.40856     -13654.7            0   -11868.833    977.45792    30037.781 
 3530000    299.51848   -13569.805            0   -11752.942   -121.74193    30739.062 
 3540000    295.68909   -13665.515            0    -11871.88     440.4613     30481.91 
 3550000    300.42594   -13637.835            0   -11815.466   -344.78716    30556.627 
 3560000    307.46169   -13638.965            0   -11773.918   -670.34215    30929.448 
 3570000    300.25321    -13556.34            0   -11735.019    228.73312    30154.105 
 3580000      294.999    -13580.11            0   -11790.662   -430.05269    30327.966 
 3590000    293.66719    -13611.86            0    -11830.49     644.5408    30054.468 
 3600000    289.41922     -13607.9            0   -11852.298    117.43106     30523.13 
 3610000    288.37435   -13610.125            0   -11860.861    402.71694    30717.008 
 3620000    307.36451   -13690.243            0   -11825.786   -151.61883    30480.231 
 3630000    299.20148   -13609.595            0   -11794.654    618.56983    30265.105 
 3640000    294.17819   -13614.482            0   -11830.013    718.31752    29556.529 
 3650000    304.25163   -13605.908            0   -11760.334    61.780877    30944.704 
 3660000    306.68249   -13687.008            0   -11826.688    94.713155    30349.978 
 3670000    303.19298   -13590.774            0   -11751.621   -110.56794    30730.688 
 3680000    300.47269   -13526.731            0   -11704.079    384.44047    30550.692 
 3690000    297.11418   -13588.905            0   -11786.626   -154.41269    30632.878 
 3700000    296.28374   -13631.338            0   -11834.096   -283.49548    30300.133 
 3710000    301.25804   -13579.017            0   -11751.601   -322.43517    30622.685 
 3720000    302.16242   -13546.893            0   -11713.992   -219.05706    30710.147 
 3730000    300.07858   -13650.243            0   -11829.982    239.07909     30477.47 
 3740000    288.78166   -13759.785            0    -12008.05    24.290601    30590.188 
 3750000    294.71974    -13523.53            0   -11735.775    824.84563    30252.898 
 3760000    289.02249   -13596.576            0    -11843.38    275.44198    30257.214 
 3770000    293.49911   -13540.518            0   -11760.167   -344.09266    30704.842 
 3780000    292.24066   -13535.035            0   -11762.318   -636.54211    30884.857 
 3790000    306.58599   -13692.755            0   -11833.021    115.19148    30734.611 
 3800000    292.67826   -13628.286            0   -11852.914    570.85587    30435.425 
 3810000    293.39167   -13590.371            0   -11810.672   -393.33521    30250.014 
 3820000    302.37895   -13680.099            0   -11845.884     485.3697    30606.542 
 3830000    297.00738   -13624.114            0   -11822.483    218.10799    30494.202 
 3840000     290.3232   -13588.544            0   -11827.458    327.62637    30158.383 
 3850000    298.84005   -13563.608            0   -11750.859   -500.86082    30718.456 
 3860000    298.74543   -13613.737            0   -11801.562    247.64608    30755.216 
 3870000    297.73726   -13574.883            0   -11768.824    40.510053     30734.25 
 3880000    289.76978   -13643.347            0   -11885.618    -1154.765    30940.038 
 3890000    300.56686   -13579.918            0   -11756.695    24.454469     30301.69 
 3900000    305.13053   -13541.877            0    -11690.97   -832.78243     30585.52 
 3910000    299.32335   -13590.057            0   -11774.377    581.01995    30752.499 
 3920000    289.78562   -13670.676            0   -11912.852    -487.1015    30764.458 
 3930000    292.72283   -13544.267            0   -11768.625   -851.09654    31080.591 
 3940000    298.48647   -13548.228            0   -11737.625    101.98308    30897.763 
 3950000    299.34781   -13586.163            0   -11770.334    377.33224    30558.684 
 3960000    289.11857   -13472.337            0   -11718.558   -224.81509    30663.974 
 3970000    285.20845   -13597.169            0   -11867.109    487.17033    30021.852 
 3980000    298.61423   -13570.653            0   -11759.274    192.60364    30355.894 
 3990000    294.52931   -13725.047            0   -11938.447   -630.54747    30539.963 
 4000000    303.21041   -13610.868            0   -11771.609     49.73577    30499.069 
 4010000     298.2244   -13515.681            0   -11706.667   -617.47026    30501.775 
 4020000    293.60366   -13602.007            0   -11821.022    475.91569    30529.522 
 4030000    301.68137   -13578.065            0   -11748.082   -55.086171    30865.624 
 4040000    290.08303   -13639.209            0    -11879.58    142.99027    30728.515 
 4050000    305.11673   -13574.665            0   -11723.843    407.42362    30620.798 
 4060000    304.43383   -13546.902            0   -11700.223    6.5334082    30657.083 
 4070000    301.04028   -13571.432            0   -11745.337    986.53261    30010.291 
 4080000    301.62446   -13569.706            0   -11740.068   -719.44384     31036.29 
 4090000    299.61495   -13614.428            0    -11796.98   -443.38583      30445.3 
 4100000    300.18284   -13638.046            0   -11817.152    119.19191    30607.684 
 4110000    297.96718    -13571.76            0   -11764.307   -510.06557    30664.048 
 4120000    297.90954   -13616.308            0   -11809.204   -695.58908    30618.805 
 4130000    294.06045   -13517.014            0   -11733.259   -151.21646    30762.369 
 4140000    300.09249   -13551.256            0   -11730.911     246.2505    30239.393 
 4150000    300.28657   -13544.836            0   -11723.313    337.20829    30515.053 
 4160000    293.03014   -13593.632            0   -11816.126   -348.42643    30416.634 
 4170000    299.78194   -13584.633            0   -11766.171    296.09117    30241.652 
 4180000    301.73025   -13595.057            0   -11764.777   -921.74858    30442.163 
 4190000    295.19332   -13536.986            0   -11746.359    65.184631    30517.754 
 4200000    298.66613   -13660.085            0   -11848.391   -57.892495    30809.042 
 4210000    305.34811   -13596.834            0   -11744.608    635.48218    30157.535 
 4220000    297.79387   -13619.002            0     -11812.6   -936.81023    30753.914 
 4230000    294.77499   -13535.812            0   -11747.722    784.02771    30369.446 
 4240000    305.07993   -13720.277            0   -11869.678    515.81708    29963.896 
 4250000    300.84528   -13657.998            0   -11833.086    -383.1937     30631.16 
 4260000    300.47522   -13569.376            0   -11746.708    11.911859     31105.28 
 4270000    295.76102   -13674.171            0     -11880.1    345.47039    30229.065 
 4280000    307.46615   -13601.339            0   -11736.265    241.72972    30404.948 
 4290000    297.70516   -13646.214            0    -11840.35   -115.48731    30723.054 
 4300000    298.37405   -13636.856            0   -11826.935    590.09194    30482.743 
 4310000    300.78749   -13582.547            0   -11757.986    19.481837    30716.105 
 4320000    300.21228   -13614.442            0    -11793.37   -407.71375    30471.414 
 4330000    303.36438   -13580.516            0   -11740.323   -555.90722    30560.842 
 4340000    303.99617   -13616.942            0   -11772.917    480.18923    30595.674 
 4350000     302.9756   -13527.919            0   -11690.085   -175.36119    31110.103 
 4360000    294.15817   -13553.931            0   -11769.583    251.24701     31001.25 
 4370000    304.28197   -13598.587            0   -11752.829   -321.40227    30658.542 
 4380000    300.86282   -13567.584            0   -11742.565    243.98699    30679.542 
 4390000    292.93083   -13535.765            0   -11758.862    135.14548    30147.263 
 4400000    303.63869   -13688.864            0   -11847.007   -490.55752    30713.905 
 4410000    292.95408     -13511.7            0   -11734.656    239.45013    30726.808 
 4420000    301.96277    -13558.41            0   -11726.719    61.317243    30510.688 
 4430000    293.99365    -13635.67            0    -11852.32   -3.1742255    30306.397 
 4440000    291.50498   -13546.166            0   -11777.912   -649.69618    30114.814 
 4450000    309.14605   -13625.936            0   -11750.672   -140.40882    30569.088 
 4460000    291.87004   -13663.497            0   -11893.028    243.01385     30751.72 
 4470000    302.01677   -13555.839            0   -11723.821   -356.32942    30954.169 
 4480000    306.06007    -13663.66            0   -11807.116    820.06302    30327.855 
 4490000    298.99426   -13631.673            0   -11817.989   -698.05562    31024.851 
 4500000    296.64584   -13641.384            0   -11841.946    364.30143    30293.725 
 4510000    293.37751   -13665.069            0   -11885.456    357.56179    30681.978 
 4520000    293.88629   -13609.643            0   -11826.944    9.2995579    30742.055 
 4530000    306.94963   -13670.607            0   -11808.667   -135.83972    30512.546 
 4540000    302.48107   -13562.651            0   -11727.816   -370.56906    30864.034 
 4550000    286.90276   -13548.073            0   -11807.736   -406.93542    30599.045 
 4560000    293.68843   -13673.146            0   -11891.647    411.21864    30073.869 
 4570000     292.8153   -13581.731            0   -11805.528   -455.24846    30730.448 
 4580000    290.72381   -13599.219            0   -11835.703    85.129463    30929.662 
 4590000    298.97697    -13489.84            0   -11676.261   -355.62203    30785.526 
 4600000    303.65413   -13587.655            0   -11745.705   -533.10238    30632.478 
 4610000    297.88111   -13489.718            0   -11682.786    462.39449    30687.041 
 4620000    305.68907   -13564.444            0    -11710.15     175.6997    30147.936 
 4630000      304.161   -13468.444            0   -11623.419    16.524791    30905.586 
 4640000    313.83508   -13529.683            0   -11625.975    329.52488     30519.38 
 4650000    294.39866   -13638.796            0   -11852.989   -512.90059     30631.93 
 4660000    293.48327   -13599.679            0   -11819.424   -539.07156    30724.372 
 4670000     293.2315   -13595.873            0   -11817.146    214.38997    30682.685 
 4680000    298.38504   -13565.407            0   -11755.419    537.08392    30663.366 
 4690000    296.38249   -13625.027            0   -11827.186   -95.204788    31048.938 
 4700000    300.64747   -13634.047            0   -11810.335    478.05737    30087.947 
 4710000    293.48311    -13530.84            0   -11750.587   -636.76891    31213.411 
 4720000    302.25771   -13538.074            0   -11704.594   -309.86937    31146.007 
 4730000    294.36143   -13512.625            0   -11727.044   -509.52037    31031.446 
 4740000    300.25093   -13640.163            0   -11818.856   -507.58959    30757.412 
 4750000    299.74944   -13476.239            0   -11657.974    151.32216    30729.559 
 4760000    290.21349   -13544.179            0   -11783.759    235.47826    30622.067 
 4770000    303.39839    -13570.65            0   -11730.252   -271.39032    30303.378 
 4780000    300.70529   -13646.113            0    -11822.05    365.33296    30640.361 
 4790000      306.525   -13642.917            0   -11783.552    96.559813    30072.286 
 4800000     288.7792   -13579.143            0   -11827.423    346.41984    30511.996 
 4810000    294.37445   -13528.933            0   -11743.273   -821.75517    30641.773 
 4820000    303.93824   -13578.155            0   -11734.482   -113.02395    30971.099 
 4830000    307.82663   -13622.561            0   -11755.301   -329.99509      31133.9 
 4840000    295.79119   -13635.746            0   -11841.492    374.97618    30349.186 
 4850000    302.32452   -13693.218            0   -11859.333     269.6039    30608.999 
 4860000    300.58652   -13584.284            0   -11760.942    497.47897    30677.845 
 4870000      303.898   -13569.323            0   -11725.893    467.30639    30321.988 
 4880000    293.55587   -13541.008            0   -11760.313    595.45273    30246.172 
 4890000    296.88912    -13619.83            0   -11818.916   -595.18836     30631.27 
 4900000    301.81325    -13612.16            0   -11781.376   -303.66005     30634.99 
 4910000    297.94687   -13598.987            0   -11791.657    31.160155    31028.501 
 4920000    297.67087   -13451.613            0   -11645.957   -1128.6766    30931.555 
 4930000      294.004   -13572.367            0   -11788.954    60.036242    30560.489 
 4940000    293.79941   -13581.415            0   -11799.242   -190.55929    30345.562 
 4950000    305.92487   -13573.006            0   -11717.282   -503.19554     31037.91 
 4960000    297.33764   -13590.592            0   -11786.957   -390.86118    30674.435 
 4970000    299.57034   -13677.196            0   -11860.017    129.49968    30178.079 
 4980000    299.14379   -13572.291            0     -11757.7   -280.17366    30751.508 
 4990000    295.49767   -13560.108            0   -11767.634    396.99723    30582.013 
 5000000    306.96525   -13603.132            0   -11741.096   -171.96769    30685.534 
Loop time of 5212.27 on 128 procs for 5000000 steps with 3036 atoms

Performance: 165.763 ns/day, 0.145 hours/ns, 959.274 timesteps/s
99.3% CPU use with 128 MPI tasks x no OpenMP threads

MPI task timing breakdown:
Section |  min time  |  avg time  |  max time  |%varavg| %total
---------------------------------------------------------------
Pair    | 1169.9     | 1400.1     | 1622       | 292.7 | 26.86
Bond    | 0.48423    | 0.5894     | 0.93218    |   9.4 |  0.01
Kspace  | 2111.9     | 2328.4     | 2536.8     | 221.3 | 44.67
Neigh   | 142.19     | 146.57     | 150.64     |  27.1 |  2.81
Comm    | 550.34     | 614.95     | 690.5      | 131.8 | 11.80
Output  | 0.041075   | 0.041808   | 0.043023   |   0.2 |  0.00
Modify  | 534.51     | 638.63     | 687.18     | 139.3 | 12.25
Other   |            | 82.99      |            |       |  1.59

Nlocal:    23.7188 ave 30 max 15 min
Histogram: 1 3 7 7 25 17 30 11 20 7
Nghost:    2953.76 ave 3008 max 2914 min
Histogram: 8 11 16 26 18 21 17 6 4 1
Neighs:    9155.43 ave 12414 max 5634 min
Histogram: 3 6 10 13 29 19 20 16 6 6

Total # of neighbors = 1171895
Ave neighs/atom = 386
Ave special neighs/atom = 1.97628
Neighbor list builds = 438133
Dangerous builds = 0
PPPM initialization ...
  extracting TIP4P info from pair style
  using 12-bit tables for long-range coulomb (../kspace.cpp:321)
  G vector (1/distance) = 0.312065
  grid = 30 30 30
  stencil order = 5
  estimated absolute RMS force accuracy = 0.0034068
  estimated relative force accuracy = 1.02595e-05
  using double precision FFTs
  3d grid and FFT values/proc = 2475 256
Setting up Verlet run ...
  Unit style    : real
  Current step  : 0
  Time step     : 2
Per MPI rank memory allocation (min/avg/max) = 8.201 | 8.213 | 8.22 Mbytes
Density 
   1.0318184 
   1.0223969 
   1.0389277 
   1.0491256 
   1.0432953 
   1.0282413 
   1.0472695 
   1.0372438 
   1.0312685 
   1.0425687 
   1.0309719 
   1.0315495 
   1.0396614 
   1.0312266 
   1.0312987 
   1.0532641 
   1.0216604 
    1.020259 
   1.0348784 
   1.0344582 
   1.0354951 
   1.0238433 
   1.0404741 
   1.0527493 
   1.0289453 
   1.0206689 
   1.0367552 
   1.0467734 
   1.0326085 
   1.0303153 
   1.0160436 
   1.0444144 
    1.039048 
   1.0209243 
    1.024469 
   1.0532265 
   1.0403161 
   1.0272167 
   1.0306186 
   1.0319095 
   1.0315312 
   1.0327016 
   1.0354612 
   1.0412032 
   1.0435029 
   1.0350056 
   1.0362509 
   1.0376906 
   1.0320657 
   1.0398738 
    1.034187 
   1.0400983 
   1.0379766 
   1.0292153 
   1.0215635 
   1.0211479 
   1.0295629 
   1.0086675 
   1.0366615 
    1.024026 
   1.0322766 
   1.0318168 
   1.0327809 
    1.037967 
   1.0516254 
   1.0417876 
    1.035659 
   1.0452434 
   1.0468092 
   1.0280463 
   1.0286399 
   1.0200716 
   1.0409375 
   1.0405848 
   1.0339253 
   1.0397603 
   1.0362432 
   1.0519191 
   1.0482082 
   1.0151614 
   1.0525701 
   1.0183362 
    1.022897 
   1.0402884 
   1.0226176 
    1.039328 
    1.046056 
   1.0219006 
   1.0318008 
    1.032983 
   1.0323973 
   1.0467818 
   1.0329436 
   1.0365607 
   1.0420708 
   1.0284769 
   1.0275874 
   1.0391511 
   1.0269192 
   1.0381376 
   1.0272266 
   1.0330057 
   1.0231417 
   1.0377584 
   1.0456748 
   1.0321679 
   1.0564853 
   1.0400026 
   1.0413687 
   1.0452118 
   1.0346464 
   1.0383936 
   1.0332088 
   1.0371177 
   1.0201884 
    1.040364 
   1.0416235 
    1.028487 
   1.0434811 
   1.0190189 
   1.0451042 
   1.0310636 
   1.0567879 
   1.0339362 
   1.0203283 
   1.0336016 
   1.0232323 
   1.0372829 
   1.0425791 
   1.0352835 
   1.0266213 
   1.0241161 
   1.0365925 
   1.0330306 
   1.0122162 
   1.0389626 
   1.0395317 
   1.0162882 
   1.0273028 
   1.0242277 
   1.0422272 
   1.0358372 
   1.0307463 
   1.0321276 
   1.0334164 
   1.0163857 
   1.0273313 
   1.0224563 
   1.0422213 
   1.0284114 
    1.049075 
   1.0393831 
   1.0374868 
   1.0214819 
   1.0409004 
   1.0378412 
   1.0314707 
   1.0459008 
   1.0216888 
   1.0429138 
   1.0425322 
   1.0427404 
   1.0170389 
   1.0305054 
   1.0313138 
   1.0232725 
   1.0296815 
   1.0349237 
   1.0261188 
   1.0338437 
   1.0308995 
   1.0273529 
   1.0229485 
    1.042203 
   1.0349484 
   1.0205201 
   1.0288798 
   1.0422801 
     1.03391 
   1.0371321 
   1.0280209 
   1.0319721 
   1.0395629 
   1.0415516 
   1.0306255 
    1.038206 
   1.0225331 
   1.0209525 
   1.0448312 
   1.0178052 
   1.0315124 
   1.0178691 
   1.0483112 
   1.0291256 
    1.022883 
     1.02889 
    1.040154 
   1.0401592 
   1.0362228 
   1.0357243 
   1.0259538 
    1.031952 
   1.0515187 
   1.0363277 
   1.0422118 
   1.0126772 
   1.0350749 
   1.0385124 
   1.0286795 
   1.0342771 
   1.0291639 
   1.0383753 
   1.0445219 
   1.0288235 
   1.0212498 
   1.0366513 
   1.0305452 
   1.0420337 
   1.0197973 
   1.0331764 
   1.0150811 
    1.040688 
   1.0211884 
   1.0551531 
    1.037586 
   1.0344093 
   1.0430907 
   1.0214488 
   1.0375704 
   1.0243898 
   1.0351232 
   1.0313902 
   1.0413384 
    1.021407 
    1.036677 
   1.0279245 
   1.0330429 
   1.0357131 
   1.0286522 
   1.0350455 
   1.0288645 
   1.0388353 
   1.0427076 
    1.038445 
   1.0228966 
   1.0410484 
   1.0500175 
   1.0315559 
   1.0457606 
   1.0447563 
   1.0365885 
   1.0562615 
   1.0297542 
   1.0479561 
   1.0338537 
   1.0414904 
   1.0391226 
   1.0472203 
   1.0397034 
   1.0493707 
   1.0303099 
   1.0420652 
   1.0540992 
   1.0291684 
    1.047554 
   1.0349192 
   1.0447968 
   1.0176096 
   1.0360575 
   1.0169465 
   1.0284604 
   1.0320077 
   1.0423227 
   1.0367652 
   1.0459281 
   1.0328115 
    1.036277 
    1.018804 
   1.0357273 
   1.0226909 
   1.0310134 
    1.040378 
   1.0437249 
   1.0321047 
   1.0305004 
   1.0233832 
    1.039751 
   1.0360804 
   1.0406446 
   1.0402277 
   1.0351577 
   1.0390939 
   1.0344406 
   1.0153007 
   1.0364752 
   1.0463002 
    1.012751 
   1.0429832 
   1.0525353 
   1.0318028 
    1.036502 
   1.0415749 
   1.0331236 
   1.0324485 
   1.0339904 
   1.0281296 
   1.0296452 
   1.0392311 
   1.0153021 
   1.0476857 
   1.0325628 
   1.0238784 
   1.0439453 
   1.0497445 
   1.0268327 
    1.051383 
   1.0546588 
   1.0490094 
   1.0383311 
   1.0281533 
   1.0547966 
    1.035327 
   1.0363752 
   1.0365173 
   1.0351507 
   1.0181101 
   1.0247128 
   1.0456205 
   1.0431655 
   1.0293962 
   1.0269601 
    1.026054 
   1.0345866 
   1.0337725 
   1.0154258 
   1.0350201 
   1.0421322 
   1.0349594 
   1.0385085 
   1.0338316 
   1.0446424 
   1.0337645 
   1.0409587 
   1.0258184 
    1.047496 
   1.0309809 
   1.0257373 
   1.0392565 
   1.0431098 
   1.0204685 
    1.021291 
    1.050535 
    1.047104 
   1.0258115 
   1.0420999 
   1.0413511 
   1.0430937 
   1.0170354 
    1.038824 
   1.0306011 
   1.0248459 
   1.0430731 
   1.0488554 
   1.0517991 
   1.0146978 
   1.0307204 
   1.0593945 
   1.0277735 
   1.0266681 
   1.0417779 
    1.045221 
    1.029343 
   1.0475539 
   1.0296821 
   1.0399634 
   1.0402702 
   1.0240272 
   1.0353181 
   1.0426633 
   1.0287839 
    1.031579 
   1.0186401 
   1.0195492 
    1.037072 
   1.0316501 
   1.0410285 
   1.0365513 
   1.0325349 
   1.0347792 
   1.0460659 
   1.0307655 
   1.0362567 
   1.0370462 
   1.0481694 
   1.0417965 
   1.0258844 
   1.0373134 
   1.0225584 
   1.0405467 
   1.0474442 
   1.0424607 
    1.022256 
   1.0255029 
   1.0336905 
   1.0343002 
   1.0383969 
   1.0297732 
   1.0288665 
   1.0362422 
   1.0340914 
   1.0234814 
   1.0394097 
   1.0381274 
   1.0306601 
   1.0365112 
   1.0451224 
   1.0413265 
   1.0446011 
   1.0265916 
   1.0405823 
   1.0130457 
   1.0246595 
   1.0368034 
   1.0391289 
   1.0427379 
    1.029337 
    1.033643 
   1.0243064 
   1.0298915 
   1.0336302 
   1.0204143 
   1.0392855 
   1.0332076 
   1.0358999 
   1.0399724 
    1.022558 
   1.0371669 
   1.0476782 
   1.0281568 
   1.0479027 
   1.0351635 
    1.041337 
   1.0167696 
   1.0272365 
   1.0399952 
   1.0223614 
   1.0191249 
   1.0375559 
   1.0385406 
   1.0427347 
   1.0236094 
   1.0211777 
   1.0249622 
   1.0395527 
   1.0379533 
    1.037107 
   1.0343084 
   1.0364579 
   1.0308001 
   1.0517668 
   1.0285667 
   1.0426401 
   1.0538785 
   1.0254734 
   1.0421579 
   1.0231653 
   1.0367736 
   1.0335526 
     1.03041 
   1.0356999 
   1.0426084 
   1.0454413 
    1.025379 
    1.040483 
   1.0159249 
   1.0182064 
   1.0257494 
   1.0294393 
   1.0404304 
    1.030124 
   1.0225995 
   1.0415648 
   1.0326262 
   1.0265917 
   1.0283928 
   1.0146329 
   1.0235064 
   1.0362212 
   1.0220403 
   1.0395058 
   1.0401192 
   1.0446299 
   1.0392218 
   1.0153862 
   1.0277917 
   1.0431815 
    1.037348 
   1.0263795 
   1.0145298 
   1.0217513 
   1.0302648 
Loop time of 5267.24 on 128 procs for 5000000 steps with 3036 atoms

Performance: 164.033 ns/day, 0.146 hours/ns, 949.264 timesteps/s
99.3% CPU use with 128 MPI tasks x no OpenMP threads

MPI task timing breakdown:
Section |  min time  |  avg time  |  max time  |%varavg| %total
---------------------------------------------------------------
Pair    | 1153.5     | 1399.4     | 1620       | 297.2 | 26.57
Bond    | 0.47685    | 0.58615    | 0.92625    |   9.8 |  0.01
Kspace  | 2113.8     | 2327.1     | 2546.8     | 222.8 | 44.18
Neigh   | 142.53     | 146.44     | 150.71     |  26.6 |  2.78
Comm    | 549.58     | 615.88     | 692.86     | 136.6 | 11.69
Output  | 0.016927   | 0.021517   | 0.036226   |   2.1 |  0.00
Modify  | 588.26     | 692.37     | 742.37     | 135.6 | 13.14
Other   |            | 85.48      |            |       |  1.62

Nlocal:    23.7188 ave 30 max 16 min
Histogram: 2 2 12 14 13 38 10 27 3 7
Nghost:    2936.11 ave 2976 max 2905 min
Histogram: 9 9 15 26 21 18 16 8 4 2
Neighs:    9133.95 ave 12416 max 5182 min
Histogram: 1 3 9 14 24 28 23 11 12 3

Total # of neighbors = 1169146
Ave neighs/atom = 385.094
Ave special neighs/atom = 1.97628
Neighbor list builds = 438001
Dangerous builds = 0
Changing box ...
  orthogonal box = (0.600987 0.600987 0.600987) to (31.8783 31.9239 31.9239)
  orthogonal box = (0.600987 0.600987 0.600987) to (31.8783 31.8783 31.9239)
  orthogonal box = (0.600987 0.600987 0.600987) to (31.8783 31.8783 31.8783)
PPPM initialization ...
  extracting TIP4P info from pair style
  using 12-bit tables for long-range coulomb (../kspace.cpp:321)
  G vector (1/distance) = 0.312133
  grid = 30 30 30
  stencil order = 5
  estimated absolute RMS force accuracy = 0.00339714
  estimated relative force accuracy = 1.02304e-05
  using double precision FFTs
  3d grid and FFT values/proc = 2475 256
Setting up Verlet run ...
  Unit style    : real
  Current step  : 0
  Time step     : 0.001
Per MPI rank memory allocation (min/avg/max) = 8.201 | 8.213 | 8.22 Mbytes
Density 
   1.0347787 
   1.0347787 
Loop time of 7.59914 on 128 procs for 10000 steps with 3036 atoms

Performance: 0.114 ns/day, 211.087 hours/ns, 1315.939 timesteps/s
99.4% CPU use with 128 MPI tasks x no OpenMP threads

MPI task timing breakdown:
Section |  min time  |  avg time  |  max time  |%varavg| %total
---------------------------------------------------------------
Pair    | 1.1804     | 2.0834     | 2.7978     |  22.4 | 27.42
Bond    | 0.00070819 | 0.0008661  | 0.0014811  |   0.0 |  0.01
Kspace  | 2.8961     | 3.6129     | 4.502      |  16.8 | 47.54
Neigh   | 0          | 0          | 0          |   0.0 |  0.00
Comm    | 1.0068     | 1.0939     | 1.1698     |   3.5 | 14.39
Output  | 3.3192e-05 | 4.0741e-05 | 8.2614e-05 |   0.0 |  0.00
Modify  | 0.62917    | 0.69924    | 0.75734    |   3.6 |  9.20
Other   |            | 0.1089     |            |       |  1.43

Nlocal:    23.7188 ave 29 max 16 min
Histogram: 4 3 2 18 13 12 42 14 9 11
Nghost:    2944.82 ave 2984 max 2910 min
Histogram: 5 12 13 23 15 24 18 6 7 5
Neighs:    9182.66 ave 12015 max 5293 min
Histogram: 2 5 4 10 20 29 26 11 14 7

Total # of neighbors = 1175380
Ave neighs/atom = 387.148
Ave special neighs/atom = 1.97628
Neighbor list builds = 0
Dangerous builds = 0
PPPM initialization ...
  extracting TIP4P info from pair style
  using 12-bit tables for long-range coulomb (../kspace.cpp:321)
  G vector (1/distance) = 0.312133
  grid = 30 30 30
  stencil order = 5
  estimated absolute RMS force accuracy = 0.00339714
  estimated relative force accuracy = 1.02304e-05
  using double precision FFTs
  3d grid and FFT values/proc = 2475 256
Setting up Verlet run ...
  Unit style    : real
  Current step  : 10000
  Time step     : 0.01
Per MPI rank memory allocation (min/avg/max) = 8.201 | 8.213 | 8.22 Mbytes
Density 
   1.0347787 
   1.0347787 
Loop time of 7.65269 on 128 procs for 10000 steps with 3036 atoms

Performance: 1.129 ns/day, 21.257 hours/ns, 1306.730 timesteps/s
99.4% CPU use with 128 MPI tasks x no OpenMP threads

MPI task timing breakdown:
Section |  min time  |  avg time  |  max time  |%varavg| %total
---------------------------------------------------------------
Pair    | 1.3384     | 2.0797     | 2.6742     |  21.8 | 27.18
Bond    | 0.00071479 | 0.00084729 | 0.0012592  |   0.0 |  0.01
Kspace  | 3.022      | 3.644      | 4.3921     |  16.4 | 47.62
Neigh   | 0.0011386  | 0.0011586  | 0.0011792  |   0.0 |  0.02
Comm    | 0.97734    | 1.0799     | 1.1618     |   3.8 | 14.11
Output  | 2.6269e-05 | 3.3498e-05 | 9.7973e-05 |   0.0 |  0.00
Modify  | 0.6616     | 0.73976    | 0.80014    |   3.9 |  9.67
Other   |            | 0.1072     |            |       |  1.40

Nlocal:    23.7188 ave 31 max 16 min
Histogram: 4 5 12 9 27 16 30 12 11 2
Nghost:    2949.18 ave 2987 max 2919 min
Histogram: 4 13 20 18 19 29 10 7 6 2
Neighs:    9180.94 ave 12521 max 5962 min
Histogram: 7 8 10 16 19 25 21 16 4 2

Total # of neighbors = 1175160
Ave neighs/atom = 387.075
Ave special neighs/atom = 1.97628
Neighbor list builds = 4
Dangerous builds = 0
PPPM initialization ...
  extracting TIP4P info from pair style
  using 12-bit tables for long-range coulomb (../kspace.cpp:321)
  G vector (1/distance) = 0.312133
  grid = 30 30 30
  stencil order = 5
  estimated absolute RMS force accuracy = 0.00339714
  estimated relative force accuracy = 1.02304e-05
  using double precision FFTs
  3d grid and FFT values/proc = 2475 256
Setting up Verlet run ...
  Unit style    : real
  Current step  : 20000
  Time step     : 0.1
Per MPI rank memory allocation (min/avg/max) = 8.201 | 8.213 | 8.22 Mbytes
Density 
   1.0347787 
   1.0347787 
Loop time of 7.73618 on 128 procs for 10000 steps with 3036 atoms

Performance: 11.168 ns/day, 2.149 hours/ns, 1292.627 timesteps/s
99.4% CPU use with 128 MPI tasks x no OpenMP threads

MPI task timing breakdown:
Section |  min time  |  avg time  |  max time  |%varavg| %total
---------------------------------------------------------------
Pair    | 1.0765     | 2.0908     | 2.8868     |  20.4 | 27.03
Bond    | 0.0006993  | 0.00085564 | 0.0012934  |   0.0 |  0.01
Kspace  | 2.9446     | 3.7442     | 4.7493     |  15.1 | 48.40
Neigh   | 0.013022   | 0.013113   | 0.01325    |   0.0 |  0.17
Comm    | 0.98547    | 1.0736     | 1.1451     |   3.4 | 13.88
Output  | 2.153e-05  | 2.8346e-05 | 5.0264e-05 |   0.0 |  0.00
Modify  | 0.63933    | 0.70436    | 0.75879    |   3.5 |  9.10
Other   |            | 0.1091     |            |       |  1.41

Nlocal:    23.7188 ave 32 max 14 min
Histogram: 3 3 6 18 13 33 28 15 5 4
Nghost:    2955.66 ave 3024 max 2898 min
Histogram: 2 9 22 25 13 25 16 9 6 1
Neighs:    9184.38 ave 12629 max 4889 min
Histogram: 3 2 9 12 23 30 18 14 11 6

Total # of neighbors = 1175600
Ave neighs/atom = 387.22
Ave special neighs/atom = 1.97628
Neighbor list builds = 43
Dangerous builds = 0
PPPM initialization ...
  extracting TIP4P info from pair style
  using 12-bit tables for long-range coulomb (../kspace.cpp:321)
  G vector (1/distance) = 0.312133
  grid = 30 30 30
  stencil order = 5
  estimated absolute RMS force accuracy = 0.00339714
  estimated relative force accuracy = 1.02304e-05
  using double precision FFTs
  3d grid and FFT values/proc = 2475 256
Setting up Verlet run ...
  Unit style    : real
  Current step  : 30000
  Time step     : 0.2
Per MPI rank memory allocation (min/avg/max) = 8.201 | 8.213 | 8.22 Mbytes
Density 
   1.0347787 
   1.0347787 
Loop time of 8.17201 on 128 procs for 10000 steps with 3036 atoms

Performance: 21.145 ns/day, 1.135 hours/ns, 1223.689 timesteps/s
99.3% CPU use with 128 MPI tasks x no OpenMP threads

MPI task timing breakdown:
Section |  min time  |  avg time  |  max time  |%varavg| %total
---------------------------------------------------------------
Pair    | 1.5986     | 2.1001     | 2.6698     |  16.9 | 25.70
Bond    | 0.0007153  | 0.00085532 | 0.001283   |   0.0 |  0.01
Kspace  | 3.4796     | 4.1124     | 4.612      |  12.0 | 50.32
Neigh   | 0.026908   | 0.027204   | 0.027519   |   0.1 |  0.33
Comm    | 1.0129     | 1.1047     | 1.1911     |   3.7 | 13.52
Output  | 2.6309e-05 | 3.4491e-05 | 5.7818e-05 |   0.0 |  0.00
Modify  | 0.64418    | 0.71245    | 0.76764    |   3.6 |  8.72
Other   |            | 0.1142     |            |       |  1.40

Nlocal:    23.7188 ave 33 max 17 min
Histogram: 4 11 17 34 14 27 12 5 3 1
Nghost:    2952.98 ave 2984 max 2929 min
Histogram: 6 7 19 19 34 14 13 10 4 2
Neighs:    9183.08 ave 13772 max 6187 min
Histogram: 7 13 24 22 22 26 5 5 3 1

Total # of neighbors = 1175434
Ave neighs/atom = 387.165
Ave special neighs/atom = 1.97628
Neighbor list builds = 89
Dangerous builds = 0
PPPM initialization ...
  extracting TIP4P info from pair style
  using 12-bit tables for long-range coulomb (../kspace.cpp:321)
  G vector (1/distance) = 0.312133
  grid = 30 30 30
  stencil order = 5
  estimated absolute RMS force accuracy = 0.00339714
  estimated relative force accuracy = 1.02304e-05
  using double precision FFTs
  3d grid and FFT values/proc = 2475 256
Setting up Verlet run ...
  Unit style    : real
  Current step  : 40000
  Time step     : 0.5
Per MPI rank memory allocation (min/avg/max) = 8.201 | 8.213 | 8.22 Mbytes
Density 
   1.0347787 
   1.0347787 
Loop time of 8.01434 on 128 procs for 10000 steps with 3036 atoms

Performance: 53.903 ns/day, 0.445 hours/ns, 1247.764 timesteps/s
99.4% CPU use with 128 MPI tasks x no OpenMP threads

MPI task timing breakdown:
Section |  min time  |  avg time  |  max time  |%varavg| %total
---------------------------------------------------------------
Pair    | 1.5423     | 2.1224     | 2.7239     |  16.0 | 26.48
Bond    | 0.00069983 | 0.00085776 | 0.0013837  |   0.0 |  0.01
Kspace  | 3.2324     | 3.8462     | 4.4197     |  11.9 | 47.99
Neigh   | 0.071728   | 0.072381   | 0.073375   |   0.1 |  0.90
Comm    | 1.0238     | 1.1112     | 1.1687     |   3.4 | 13.86
Output  | 2.4205e-05 | 3.3226e-05 | 7.0372e-05 |   0.0 |  0.00
Modify  | 0.68557    | 0.74888    | 0.79932    |   3.4 |  9.34
Other   |            | 0.1124     |            |       |  1.40

Nlocal:    23.7188 ave 33 max 17 min
Histogram: 7 18 10 24 15 24 23 2 4 1
Nghost:    2951.03 ave 2969 max 2926 min
Histogram: 6 3 11 15 4 20 27 17 12 13
Neighs:    9180.02 ave 13940 max 5959 min
Histogram: 9 11 18 26 26 18 13 5 0 2

Total # of neighbors = 1175043
Ave neighs/atom = 387.037
Ave special neighs/atom = 1.97628
Neighbor list builds = 220
Dangerous builds = 0
PPPM initialization ...
  extracting TIP4P info from pair style
  using 12-bit tables for long-range coulomb (../kspace.cpp:321)
  G vector (1/distance) = 0.312133
  grid = 30 30 30
  stencil order = 5
  estimated absolute RMS force accuracy = 0.00339714
  estimated relative force accuracy = 1.02304e-05
  using double precision FFTs
  3d grid and FFT values/proc = 2475 256
Setting up Verlet run ...
  Unit style    : real
  Current step  : 0
  Time step     : 2
Per MPI rank memory allocation (min/avg/max) = 8.201 | 8.213 | 8.22 Mbytes
Density 
   1.0347787 
   1.0347787 
   1.0347787 
   1.0347787 
   1.0347787 
   1.0347787 
   1.0347787 
   1.0347787 
   1.0347787 
   1.0347787 
   1.0347787 
Loop time of 84.8032 on 128 procs for 100000 steps with 3036 atoms

Performance: 203.766 ns/day, 0.118 hours/ns, 1179.201 timesteps/s
99.4% CPU use with 128 MPI tasks x no OpenMP threads

MPI task timing breakdown:
Section |  min time  |  avg time  |  max time  |%varavg| %total
---------------------------------------------------------------
Pair    | 17.875     | 21.656     | 25.018     |  36.3 | 25.54
Bond    | 0.0070096  | 0.0084906  | 0.01274    |   1.0 |  0.01
Kspace  | 35.821     | 39.288     | 43.019     |  27.3 | 46.33
Neigh   | 2.838      | 2.8648     | 2.891      |   0.7 |  3.38
Comm    | 11.24      | 12.107     | 12.714     |  10.5 | 14.28
Output  | 0.00030723 | 0.0004408  | 0.0079361  |   0.0 |  0.00
Modify  | 7.036      | 7.7504     | 8.2839     |  11.6 |  9.14
Other   |            | 1.128      |            |       |  1.33

Nlocal:    23.7188 ave 35 max 18 min
Histogram: 11 24 31 12 24 15 7 2 1 1
Nghost:    2956.94 ave 2988 max 2924 min
Histogram: 3 8 7 21 21 20 19 19 8 2
Neighs:    9176.4 ave 13814 max 6331 min
Histogram: 7 21 20 22 26 11 16 3 0 2

Total # of neighbors = 1174579
Ave neighs/atom = 386.884
Ave special neighs/atom = 1.97628
Neighbor list builds = 8668
Dangerous builds = 0
WARNING: New thermo_style command, previous thermo_modify settings will be lost (../output.cpp:705)
PPPM initialization ...
  extracting TIP4P info from pair style
  using 12-bit tables for long-range coulomb (../kspace.cpp:321)
  G vector (1/distance) = 0.312133
  grid = 30 30 30
  stencil order = 5
  estimated absolute RMS force accuracy = 0.00339714
  estimated relative force accuracy = 1.02304e-05
  using double precision FFTs
  3d grid and FFT values/proc = 2475 256
Setting up Verlet run ...
  Unit style    : real
  Current step  : 0
  Time step     : 2
[...]
39440000    291.00256    297.42986   -404.09422    24.052683   -13538.598    1765.2065   -11773.392 
39450000    296.15907    298.23677   -370.87671    46.481305    -13597.49    1796.4857   -11801.004 
39460000    306.49551    297.88157    605.15538   -15.750469   -13643.723     1859.186   -11784.537 
39470000    299.15055    297.49424    238.82577   -23.080755   -13573.388    1814.6318   -11758.756 
39480000    309.42536    298.09006   -121.99695   -8.5555816   -13625.143    1876.9583   -11748.184 
39490000     303.0118    298.06581   -564.91587   -16.322319   -13637.559    1838.0539   -11799.505 
39500000    297.21362    298.11596    298.53941   -133.58656   -13536.781    1802.8825   -11733.898 
39510000    292.69777    298.38928    -131.0987    19.933877   -13500.395    1775.4896   -11724.906 
39520000     283.2618      298.058   -383.08425   -29.963592   -13592.851    1718.2515     -11874.6 
39530000    287.92577    298.22306   -585.72457   -46.294746   -13581.258    1746.5429   -11834.715 
39540000    291.03167    298.23672    325.67342   -79.173463   -13498.148    1765.3831   -11732.764 
39550000    296.75669    298.19057    190.77429   -62.150244   -13517.331    1800.1108   -11717.221 
39560000    300.15728    297.82853    35.462913   -36.246047   -13514.036    1820.7386   -11693.297 
39570000    299.14666    297.78029   -307.63632   -74.019154   -13679.077    1814.6082   -11864.468 
39580000    304.74355    298.22153    385.96412   -46.009625   -13470.611    1848.5587   -11622.052 
39590000    300.60198    298.47727    551.73669    71.680596   -13698.262    1823.4361   -11874.826 
39600000    291.89636    297.93285   -504.51402    186.49492    -13567.06    1770.6283   -11796.431 
39610000    292.01466    297.84607   -140.56692    50.876179   -13623.746    1771.3459     -11852.4 
39620000    294.55668    297.75838   -300.07021   -70.921072   -13684.296    1786.7656    -11897.53 
39630000    295.41086    298.18435   -213.46352   -41.441455   -13607.312     1791.947   -11815.364 
39640000    299.70114    297.65229     441.1446   -7.9447533   -13582.504    1817.9717   -11764.532 
39650000    302.39244    298.41773   -311.68637   -52.083051   -13552.598     1834.297   -11718.301 
39660000    301.59098    298.10441    51.527852    16.127668   -13674.866    1829.4354   -11845.431 
39670000    299.63016    297.97589    418.62361    -84.06522   -13482.772    1817.5411   -11665.231 
39680000     299.6434    298.23391    642.32851   -3.9371616   -13660.958    1817.6214   -11843.336 
39690000    295.85363     297.6316    281.25641     10.02141   -13714.167    1794.6328   -11919.534 
39700000    297.77304    298.22819   -99.045245    112.32267   -13620.235    1806.2759   -11813.959 
39710000    294.05097    298.23719   -594.26865   -154.74319   -13535.308     1783.698    -11751.61 
39720000    302.67867    297.69816   -316.35586    62.508886   -13664.734    1836.0332     -11828.7 
39730000    298.41396    298.01434   -117.63079   -16.883119   -13626.597    1810.1637   -11816.434 
39740000    295.69895    298.12592   -422.16061    28.803942   -13656.443    1793.6946   -11862.749 
39750000    293.52428    297.81359   -536.29416   -53.703867   -13493.745    1780.5031   -11713.242 
39760000    305.54722    298.03817   -511.84768   -54.344777   -13591.423    1853.4337   -11737.989 
39770000    299.83304    297.26397    19.095793    63.166897   -13484.289    1818.7718   -11665.517 
39780000    299.25117    298.31457    14.846015   -60.696022   -13619.339    1815.2422   -11804.097 
39790000    298.31293    298.06962   -49.234846    108.56516   -13542.766    1809.5509   -11733.215 
39800000    297.16404    297.76001    166.04584   -1.5370498    -13558.91    1802.5817   -11756.328 
39810000    299.52463    298.28276   -425.74087   -22.082294   -13583.298     1816.901   -11766.397 
39820000    297.21213    297.87225   -158.88856   -18.429114   -13564.365    1802.8735   -11761.491 
39830000    292.46527    297.57343    98.191471    33.340868   -13616.743    1774.0793   -11842.664 
39840000    298.71309    298.28329   -1106.8693   -109.98619   -13603.621    1811.9782   -11791.643 
39850000    292.76025     297.8355    308.96785   -30.418707   -13598.029    1775.8686    -11822.16 
39860000    299.17088    298.23148   -625.38116   -3.7621682   -13573.074    1814.7551   -11758.318 
39870000    302.38286    298.18828   -239.16938    2.7253749   -13472.679    1834.2389    -11638.44 
39880000    312.50439    297.63238    468.92237 -0.086059374   -13478.449    1895.6355   -11582.814 
39890000    301.89347    297.76829    256.97501     67.37413   -13610.406    1831.2702   -11779.136 
39900000    295.22702    297.66474   -70.731533    22.565379   -13532.873    1790.8319   -11742.041 
39910000     288.8094     298.1027    117.73906    -45.71571   -13578.199     1751.903   -11826.296 
39920000    296.36645     298.0216    413.51825  0.081261056   -13595.358    1797.7436   -11797.615 
39930000    300.46142    297.35113    404.43611   -68.374986   -13620.225    1822.5835   -11797.641 
39940000    304.56201    298.10946   -336.41125    55.174839   -13557.412    1847.4575   -11709.954 
39950000    304.26106    298.00944   -221.74039   -47.943014   -13575.356    1845.6319   -11729.725 
39960000    297.62873     298.0299    472.23137     26.22096   -13627.343    1805.4005   -11821.942 
39970000    312.65614    298.05003   -198.58248    74.167294   -13657.808     1896.556   -11761.252 
39980000     294.2021     298.0563   -334.49429   -5.7072972   -13632.048    1784.6148   -11847.434 
39990000    300.83461    297.63585    -479.1313   -62.017318   -13545.065    1824.8472   -11720.218 
40000000    296.38009    298.13193   -212.60182   -2.5167799   -13607.218    1797.8264   -11809.392 
40010000    298.18876    298.01975    202.99483    12.651693   -13591.845    1808.7976   -11783.048 
40020000    298.07339    297.49154    655.90098   -120.64579    -13589.59    1808.0978   -11781.492 
40030000    304.20828    298.15954     552.8659     7.806083   -13512.204    1845.3117   -11666.892 
40040000    304.96878     297.5571    747.83639    11.678319   -13519.082    1849.9249   -11669.158 
40050000    297.07236    298.15371   -286.77136    4.0697113   -13609.913    1802.0256   -11807.887 
40060000    304.38208    297.52723    9.8245724   -4.8278268    -13677.06     1846.366   -11830.694 
40070000    295.60961    297.88342    109.12188    30.643931   -13499.886    1793.1526   -11706.733 
40080000    304.39122    297.90279    384.90519    68.046168   -13623.516    1846.4215   -11777.095 
40090000     302.3016    297.89232   -13.270572    -37.96409   -13608.954    1833.7459   -11775.208 
40100000    284.39482    297.70618   -179.26848   -17.958643   -13576.244    1725.1243   -11851.119 
40110000    309.25447    297.79318    -232.0914   -43.287862   -13629.223    1875.9217   -11753.301 
40120000    291.82282    298.39483   -91.507011    28.630993   -13593.493    1770.1822   -11823.311 
40130000     307.8484    298.33089     17.08435   -14.004472   -13638.016    1867.3925   -11770.623 
40140000    299.30007    298.29915   -106.11916    22.428599   -13528.623    1815.5388   -11713.085 
40150000    298.33776    297.85057    262.75835   -47.439899   -13591.742    1809.7015   -11782.041 
40160000     293.0922    297.99778    310.42759   -15.312707   -13645.156    1777.8822   -11867.274 
40170000    296.16521    298.31526    151.75301   0.23612457   -13614.995    1796.5229   -11818.472 
40180000    291.99254     297.7786   -384.97894    3.7896139   -13514.822    1771.2117    -11743.61 
40190000    296.10144    297.84168    96.529104    30.055201   -13636.945    1796.1361   -11840.809 
40200000    294.30522    298.23278    14.449638   -40.007661   -13555.841    1785.2403   -11770.601 
40210000    298.71261    298.06422   -152.26095    14.186185   -13515.133    1811.9753   -11703.158 
40220000    294.86231    297.96126    486.74501   -22.382013   -13639.479    1788.6196    -11850.86 
40230000     292.5558    297.96276   -143.60628   -19.144187   -13661.832    1774.6284   -11887.204 
40240000    296.59881    297.75661   -322.77688     -13.9722   -13565.738    1799.1531   -11766.585 
40250000    295.52923    298.56058   -106.11739   -27.235417   -13523.051    1792.6651   -11730.386 
40260000    296.74773    297.62285    670.47721   -45.487897   -13639.543    1800.0564   -11839.487 
40270000    291.61878    297.98722    336.89513    41.555853   -13565.705    1768.9445    -11796.76 
40280000    298.64904    297.57255   -398.57676   -65.453607    -13501.52    1811.5897    -11689.93 
40290000    304.18962    298.23353    94.783707    61.868353   -13514.049    1845.1985    -11668.85 
40300000    297.84817     298.3014   -384.82719   -23.571433    -13650.72    1806.7317   -11843.989 
40310000    301.18495    297.90299   -307.92475    74.546971   -13672.771    1826.9724   -11845.799 
40320000    295.05823    298.03752    420.20302   -63.203788   -13536.016     1789.808   -11746.208 
40330000    298.96187    298.23047    441.85997    5.8888781   -13555.243    1813.4873   -11741.756 
40340000    293.78585    298.16574    144.51703   -55.728519   -13487.125    1782.0898   -11705.036 
40350000    287.00924    298.38493    9.9076967    40.348924   -13582.365    1740.9832   -11841.382 
40360000    293.43711    298.23549    393.30479   -120.95428    -13567.61    1779.9744   -11787.635 
40370000    287.61746    298.11822    32.909608    97.879916   -13557.466    1744.6727   -11812.793 
40380000    297.27842     297.4914   -63.222249   -36.523057   -13662.978    1803.2756   -11859.703 
40390000    297.51971    298.31656    208.38269    59.410899   -13654.567    1804.7392   -11849.828 
40400000    298.53509    297.85302    179.19584   -20.279327   -13648.939    1810.8985    -11838.04 
40410000    292.44043    298.07776    42.675673    69.449589   -13583.663    1773.9286   -11809.735 
40420000    305.74241    298.40446     360.1787    41.262321   -13601.475    1854.6177   -11746.857 
40430000    294.48623    298.29254   -294.57028   -70.438665   -13523.412    1786.3383   -11737.073 
40440000    301.11911    297.91748   -36.244258   -43.481936   -13505.731     1826.573   -11679.158 
40450000    294.47256     298.3894   -483.03876    -55.31864    -13580.67    1786.2554   -11794.414 
40460000    301.51692    297.47206   -34.820082    19.231904   -13608.951    1828.9861   -11779.965 
40470000    295.19723    297.45556   -734.33134   -168.65268   -13549.078    1790.6512   -11758.427 
40480000    299.71132    298.36492   -165.86821     41.86721   -13668.415    1818.0334   -11850.382 
40490000    301.70896    298.06001    310.50111   -102.94815   -13580.893     1830.151   -11750.742 
40500000    291.93262    297.90765   -634.99951   -75.674503   -13658.369    1770.8482   -11887.521 
40510000    296.98387    297.80491    526.44131    5.3191109   -13602.521    1801.4888   -11801.032 
40520000    301.70068    297.84094    573.77369    85.197271   -13553.761    1830.1008    -11723.66 
40530000    298.26733    298.15851     130.9226    14.317687    -13553.99    1809.2742   -11744.715 
40540000    290.04096    298.32746    366.26112   -61.335985   -13608.715    1759.3735   -11849.341 
40550000    308.27683    298.15031    83.469274    8.9356348   -13588.735    1869.9913   -11718.744 
40560000    295.21032    297.69953    41.260767    15.439986   -13581.316    1790.7306   -11790.586 
40570000    294.55765    297.87465    140.96155    -85.93861    -13527.46    1786.7715   -11740.688 
40580000    295.71233    297.93648    -481.2951     10.11642   -13647.609    1793.7758   -11853.833 
40590000    297.84818    297.67503   -204.16146   -18.028899   -13673.128    1806.7317   -11866.397 
40600000    301.73115    298.10712    389.68483   -32.092928   -13705.749    1830.2856   -11875.463 
40610000    298.56411    298.16847    354.61507    23.410701   -13583.154    1811.0745   -11772.079 
40620000    297.88339    297.83221   -20.045245   -72.225182   -13616.905    1806.9453   -11809.959 
40630000    299.38403    298.13934   -307.97097   -33.184517   -13581.311    1816.0481   -11765.263 
40640000    300.79162    298.01401    436.75671   -81.107298   -13581.442    1824.5864   -11756.856 
40650000     308.3541    298.25322   -93.866258    77.389808   -13522.486    1870.4601   -11652.026 
40660000    303.54053    297.90538   -672.37745    64.599707    -13569.61    1841.2612   -11728.349 
40670000    298.84589    298.53153    300.60158   -72.434611   -13657.745    1812.7838   -11844.961 
40680000    302.43234    298.05792   -346.99742    117.14238   -13696.421     1834.539   -11861.882 
40690000    295.32345    298.20001    195.65152   -3.0881362    -13602.02    1791.4169   -11810.603 
40700000    294.95482    297.70949    491.69415   -34.844304    -13597.22    1789.1807   -11808.039 
40710000    296.81844    297.91484    358.17557    12.287553   -13585.125    1800.4853    -11784.64 
40720000    299.17243    297.95969   -352.56423     36.03301   -13621.123    1814.7645   -11806.359 
40730000    303.68558    298.00461    38.952813    124.37182   -13543.627     1842.141   -11701.486 
40740000    300.51281    298.63837   -203.63733    43.811715   -13511.876    1822.8952   -11688.981 
40750000    294.81303    297.74285    73.139499    73.995107   -13663.543    1788.3207   -11875.223 
40760000    297.76898    298.12766    203.21192   -12.799185   -13642.398    1806.2513   -11836.147 
40770000    294.45143    298.30168   -498.71703   -31.074611   -13575.394    1786.1272   -11789.266 
40780000    291.38011    297.90317    98.553762   -83.447935    -13595.57    1767.4967   -11828.073 
40790000    298.26466    298.07117    258.74272   -47.586535   -13664.498    1809.2581    -11855.24 
40800000      301.343    298.21436    136.57901    13.029569   -13561.418    1827.9311   -11733.487 
40810000    297.75706    298.12888   -194.75211    43.670582    -13560.73     1806.179   -11754.551 
40820000    294.79613    298.38437    94.153799    12.213292   -13565.151    1788.2181   -11776.933 
40830000    301.59799    298.04118    84.531918    73.552449   -13554.679    1829.4779   -11725.201 
40840000    297.24224    297.50868    1.1509597     57.96114   -13543.195    1803.0561   -11740.139 
40850000    298.85404     297.8311   -579.43229    7.3269732   -13558.811    1812.8332   -11745.978 
40860000    297.82361    298.59059   -398.82777   -22.425643   -13551.753    1806.5827   -11745.171 
40870000     297.7595    298.45857     600.7675   -96.367613   -13540.546    1806.1937   -11734.353 
40880000    307.51969    298.27796   -65.482045   -6.6040859   -13562.898    1865.3986     -11697.5 
40890000    292.35079    297.77944   -876.49843   -38.340088   -13592.557    1773.3848   -11819.172 
40900000      294.848    297.97153   -248.81368   -54.346172   -13552.148    1788.5328   -11763.616 
40910000    305.81788    298.06673    327.86308   -35.923828   -13569.086    1855.0755    -11714.01 
40920000    295.06823    298.26363    291.92415    13.484574   -13596.409    1789.8687    -11806.54 
40930000    298.06807    297.69584   -63.757675   -5.5448062   -13556.519    1808.0656   -11748.453 
40940000    296.63365    298.06491   -335.98501     20.52262   -13673.053    1799.3644   -11873.689 
40950000    308.87509    298.36302   -488.83057    78.770004    -13629.95    1873.6204    -11756.33 
40960000     293.6122    298.51082   -45.177033   -48.577421   -13577.271    1781.0364   -11796.235 
40970000    305.68727      297.933   -44.859465   -95.367186   -13519.402    1854.2833   -11665.119 
40980000    306.89208    298.10367    496.67075   -39.176621   -13572.063    1861.5916   -11710.472 
40990000    300.96354    297.54607    848.47521     37.41959    -13591.57    1825.6293   -11765.941 
41000000    296.60054    298.20503   -316.77274   -51.514161   -13577.192    1799.1636   -11778.029 
41010000    299.55753    298.02979    629.52625    2.3132311   -13572.294    1817.1005   -11755.194 
41020000    295.18602    298.06619    88.380311    59.617668   -13598.785    1790.5832   -11808.202 
41030000    289.19367    298.02273   -555.06396    59.925016   -13585.048    1754.2339   -11830.814 
41040000    298.96582    298.32339   -39.175471   -29.960476   -13614.816    1813.5112   -11801.304 
41050000    297.92565    298.32344     94.40204   -40.474428   -13653.115    1807.2016   -11845.913 
41060000    296.36823    297.47747    332.67215    30.052668   -13667.767    1797.7544   -11870.012 
41070000    296.21753    297.85731    43.459692    -55.68413   -13521.428    1796.8403   -11724.587 
41080000    293.88731    297.90713   -166.10259   -50.198256   -13600.775    1782.7053    -11818.07 
41090000    300.27576    297.97984    101.77625    61.153112   -13543.334    1821.4573   -11721.876 
41100000    297.31428    297.75354    485.90617    90.727413   -13680.266    1803.4931   -11876.773 
41110000    303.87098    298.55877     212.6983   -42.162826   -13632.751    1843.2657   -11789.485 
41120000    295.05163    297.97548   -230.66482   -5.5220273   -13656.748     1789.768    -11866.98 
41130000    297.80114    297.92848   -329.62815    24.285078   -13563.166    1806.4463   -11756.719 
41140000     288.1895    297.86188    -247.9856   -17.841714   -13656.535    1748.1426   -11908.392 
41150000     303.7358    297.51857    180.01385    29.440583   -13559.612    1842.4457   -11717.166 
41160000    297.91549    298.14177    -295.8813    34.483482   -13507.329      1807.14   -11700.189 
41170000    292.68841    297.79208   -567.20694   -80.291648    -13615.21    1775.4328   -11839.777 
41180000    306.77199     297.9073    499.33538    15.638467   -13594.372    1860.8631   -11733.509 
41190000    303.51789    297.81441   -278.76415    39.852293   -13637.339    1841.1239   -11796.215 
41200000    296.91665    297.75436    -569.0249   -9.3191618   -13580.219    1801.0811   -11779.138 
41210000    299.87742     297.8223   -402.10491    13.965762   -13606.058     1819.041   -11787.018 
41220000    303.48345    298.24035    63.689518    61.059264   -13447.159     1840.915   -11606.244 
41230000     310.6602    297.90015   -96.677951   -8.9514161   -13590.319    1884.4488    -11705.87 
41240000    292.92179    297.33534   -87.475622    -2.962518   -13627.923    1776.8485   -11851.074 
41250000    289.68598    297.85872   -320.39969    50.714965   -13604.957    1757.2202   -11847.737 
41260000    303.02997    298.27238   -549.46295    31.612405   -13578.638    1838.1642   -11740.474 
41270000    299.44356    298.34014   -556.32087    6.0228654   -13547.979    1816.4092    -11731.57 
41280000    298.77159     297.7042      79.9317   -66.685947   -13643.508    1812.3331   -11831.174 
--------------------------------------------------------------------------
MPI_ABORT was invoked on rank 23 in communicator MPI_COMM_WORLD
with errorcode 1.

NOTE: invoking MPI_ABORT causes Open MPI to kill all MPI processes.
You may or may not see output from other processes, depending on
exactly when Open MPI kills them.
--------------------------------------------------------------------------
slurmstepd: error: *** STEP 2423571.0 ON tcn312 CANCELLED AT 2023-03-12T21:23:09 ***
srun: Job step aborted: Waiting up to 32 seconds for job step to finish.
srun: error: tcn312: tasks 1,9-10,15-16,20-22,27,37,40,42-43,58,68: Killed
srun: launch/slurm: _step_signal: Terminating StepId=2423571.0
srun: error: tcn312: task 23: Exited with exit code 1
41290000     299.3863     298.0633   -348.26025     22.96939    -13574.99    1816.061srun: error: tcn312: tasks 0,2-8,11-14,17-19,24-26,28-36,38-39,41,44-57,59-67,69-127: Killed

JOB STATISTICS
==============
Job ID: 2423571
Cluster: snellius
User/Group: phabibi/phabibi
State: COMPLETED (exit code 0)
Nodes: 1
Cores per node: 128
CPU Utilized: 72-06:18:03
CPU Efficiency: 99.25% of 72-19:24:48 core-walltime
Job Wall-clock time: 13:39:06
Memory Utilized: 17.50 GB (estimated maximum)
Memory Efficiency: 7.81% of 224.00 GB (1.75 GB/core)
