LAMMPS (16 Mar 2018)
Reading data file ...
  orthogonal box = (0 0 0) to (31.5079 31.5079 31.5079)
  3 by 4 by 4 MPI processor grid
  reading atoms ...
  3036 atoms
  scanning bonds ...
  2 = max bonds/atom
  scanning angles ...
  1 = max angles/atom
  reading bonds ...
  2000 bonds
  reading angles ...
  1000 angles
Finding 1-2 1-3 1-4 neighbors ...
  special bond factors lj:   0          0          0         
  special bond factors coul: 0          0          0         
  2 = max # of 1-2 neighbors
  1 = max # of 1-3 neighbors
  1 = max # of 1-4 neighbors
  2 = max # of special neighbors
Setting atom values ...
  1000 settings made for charge
Setting atom values ...
  2000 settings made for charge
Setting atom values ...
  18 settings made for charge
Setting atom values ...
  18 settings made for charge
1000 atoms in group wat
18 atoms in group Na
18 atoms in group Cl
Finding SHAKE clusters ...
  0 = # of size 2 clusters
  0 = # of size 3 clusters
  0 = # of size 4 clusters
  1000 = # of frozen angles
PPPM initialization ...
  extracting TIP4P info from pair style
  using 12-bit tables for long-range coulomb (../kspace.cpp:321)
  G vector (1/distance) = 0.311608
  grid = 30 30 30
  stencil order = 5
  estimated absolute RMS force accuracy = 0.00347214
  estimated relative force accuracy = 1.04562e-05
  using double precision FFTs
  3d grid and FFT values/proc = 3825 640
Neighbor list info ...
  update every 1 steps, delay 0 steps, check yes
  max neighbors/atom: 2000, page size: 100000
  master list distance cutoff = 12.3092
  ghost atom cutoff = 12.3092
  binsize = 6.1546, bins = 6 6 6
  1 neighbor lists, perpetual/occasional/extra = 1 0 0
  (1) pair lj/cut/tip4p/long, perpetual
      attributes: half, newton on
      pair build: half/bin/newton
      stencil: half/bin/3d/newton
      bin: standard
Setting up Verlet run ...
  Unit style    : real
  Current step  : 0
  Time step     : 0.001
Per MPI rank memory allocation (min/avg/max) = 8.125 | 8.149 | 8.396 Mbytes
Step Density Temp Press TotEng 
       0    1.0122401    444.66106    5077922.5    6583.3527 
    5000   0.97062975    562.71559     40969.19    4668.3242 
Loop time of 9.16984 on 48 procs for 5000 steps with 3036 atoms

Performance: 0.047 ns/day, 509.436 hours/ns, 545.266 timesteps/s
99.5% CPU use with 48 MPI tasks x no OpenMP threads

MPI task timing breakdown:
Section |  min time  |  avg time  |  max time  |%varavg| %total
---------------------------------------------------------------
Pair    | 2.9468     | 3.5781     | 4.2757     |  17.7 | 39.02
Bond    | 0.0010133  | 0.0012367  | 0.0025716  |   0.6 |  0.01
Kspace  | 2.3689     | 3.0667     | 3.7024     |  19.2 | 33.44
Neigh   | 0          | 0          | 0          |   0.0 |  0.00
Comm    | 1.2327     | 1.2478     | 1.2633     |   0.6 | 13.61
Output  | 5.4183e-05 | 5.6203e-05 | 6.8738e-05 |   0.0 |  0.00
Modify  | 1.0918     | 1.1897     | 1.2302     |   4.5 | 12.97
Other   |            | 0.08626    |            |       |  0.94

Nlocal:    63.25 ave 77 max 55 min
Histogram: 4 3 11 5 10 12 1 1 0 1
Nghost:    3562.15 ave 3631 max 3486 min
Histogram: 2 1 9 4 7 5 7 5 5 3
Neighs:    23999.3 ave 29127 max 19986 min
Histogram: 4 2 6 12 6 6 6 2 3 1

Total # of neighbors = 1151968
Ave neighs/atom = 379.436
Ave special neighs/atom = 1.97628
Neighbor list builds = 0
Dangerous builds = 0
PPPM initialization ...
  extracting TIP4P info from pair style
  using 12-bit tables for long-range coulomb (../kspace.cpp:321)
  G vector (1/distance) = 0.310602
  grid = 30 30 30
  stencil order = 5
  estimated absolute RMS force accuracy = 0.0036198
  estimated relative force accuracy = 1.09009e-05
  using double precision FFTs
  3d grid and FFT values/proc = 3825 640
Setting up Verlet run ...
  Unit style    : real
  Current step  : 5000
  Time step     : 0.01
Per MPI rank memory allocation (min/avg/max) = 8.126 | 8.154 | 8.396 Mbytes
Step Density Temp Press TotEng 
    5000   0.97062975    562.71559    2321686.4    4668.3238 
   10000   0.91132074    365.89145   -4976.2206   -6816.0917 
Loop time of 8.58256 on 48 procs for 5000 steps with 3036 atoms

Performance: 0.503 ns/day, 47.681 hours/ns, 582.577 timesteps/s
99.6% CPU use with 48 MPI tasks x no OpenMP threads

MPI task timing breakdown:
Section |  min time  |  avg time  |  max time  |%varavg| %total
---------------------------------------------------------------
Pair    | 2.5627     | 3.1988     | 4.0546     |  17.8 | 37.27
Bond    | 0.0010547  | 0.0012439  | 0.002271   |   0.5 |  0.01
Kspace  | 2.1997     | 3.0473     | 3.6831     |  18.2 | 35.51
Neigh   | 0.0037219  | 0.0037901  | 0.0039063  |   0.1 |  0.04
Comm    | 1.1015     | 1.1207     | 1.145      |   0.9 | 13.06
Output  | 5.0488e-05 | 5.2659e-05 | 6.5112e-05 |   0.0 |  0.00
Modify  | 1.0258     | 1.1221     | 1.1743     |   4.6 | 13.07
Other   |            | 0.08855    |            |       |  1.03

Nlocal:    63.25 ave 77 max 50 min
Histogram: 1 0 8 5 10 13 4 6 0 1
Nghost:    3191.75 ave 3260 max 3081 min
Histogram: 11 5 0 0 0 0 0 0 18 14
Neighs:    21328 ave 26518 max 16455 min
Histogram: 1 3 5 7 8 13 3 7 0 1

Total # of neighbors = 1023743
Ave neighs/atom = 337.201
Ave special neighs/atom = 1.97628
Neighbor list builds = 6
Dangerous builds = 0
PPPM initialization ...
  extracting TIP4P info from pair style
  using 12-bit tables for long-range coulomb (../kspace.cpp:321)
  G vector (1/distance) = 0.309083
  grid = 30 30 30
  stencil order = 5
  estimated absolute RMS force accuracy = 0.00385383
  estimated relative force accuracy = 1.16057e-05
  using double precision FFTs
  3d grid and FFT values/proc = 3825 640
Setting up Verlet run ...
  Unit style    : real
  Current step  : 10000
  Time step     : 0.1
Per MPI rank memory allocation (min/avg/max) = 8.126 | 8.18 | 8.396 Mbytes
Step Density Temp Press TotEng 
   10000   0.91132074    365.89145   -54708.475   -6816.0895 
   15000    1.0561629    297.79093    31.460156   -11353.555 
Loop time of 9.58568 on 48 procs for 5000 steps with 3036 atoms

Performance: 4.507 ns/day, 5.325 hours/ns, 521.612 timesteps/s
99.6% CPU use with 48 MPI tasks x no OpenMP threads

MPI task timing breakdown:
Section |  min time  |  avg time  |  max time  |%varavg| %total
---------------------------------------------------------------
Pair    | 3.2525     | 3.8445     | 4.5347     |  15.9 | 40.11
Bond    | 0.0010918  | 0.001279   | 0.0026126  |   0.6 |  0.01
Kspace  | 2.4853     | 3.1737     | 3.7692     |  17.6 | 33.11
Neigh   | 0.017966   | 0.018169   | 0.018381   |   0.1 |  0.19
Comm    | 1.2619     | 1.2752     | 1.2873     |   0.6 | 13.30
Output  | 5.3485e-05 | 5.4954e-05 | 6.8178e-05 |   0.0 |  0.00
Modify  | 1.1        | 1.1985     | 1.237      |   4.5 | 12.50
Other   |            | 0.07429    |            |       |  0.77

Nlocal:    63.25 ave 74 max 55 min
Histogram: 3 4 4 7 13 9 5 2 0 1
Nghost:    3656.4 ave 3698 max 3599 min
Histogram: 3 5 4 2 3 1 9 10 6 5
Neighs:    25037.1 ave 29687 max 21090 min
Histogram: 4 2 4 10 9 7 6 3 2 1

Total # of neighbors = 1201779
Ave neighs/atom = 395.843
Ave special neighs/atom = 1.97628
Neighbor list builds = 27
Dangerous builds = 0
PPPM initialization ...
  extracting TIP4P info from pair style
  using 12-bit tables for long-range coulomb (../kspace.cpp:321)
  G vector (1/distance) = 0.31262
  grid = 30 30 30
  stencil order = 5
  estimated absolute RMS force accuracy = 0.00332903
  estimated relative force accuracy = 1.00253e-05
  using double precision FFTs
  3d grid and FFT values/proc = 3825 640
Setting up Verlet run ...
  Unit style    : real
  Current step  : 15000
  Time step     : 0.2
Per MPI rank memory allocation (min/avg/max) = 8.127 | 8.243 | 8.397 Mbytes
Step Density Temp Press TotEng 
   15000    1.0561629    297.79093    2368.5692   -11353.556 
   20000    1.0370251    291.65949     -244.907   -11734.267 
Loop time of 10.1139 on 48 procs for 5000 steps with 3036 atoms

Performance: 8.543 ns/day, 2.809 hours/ns, 494.367 timesteps/s
99.4% CPU use with 48 MPI tasks x no OpenMP threads

MPI task timing breakdown:
Section |  min time  |  avg time  |  max time  |%varavg| %total
---------------------------------------------------------------
Pair    | 3.3491     | 3.8534     | 4.3498     |  12.1 | 38.10
Bond    | 0.001118   | 0.0012918  | 0.0025741  |   0.6 |  0.01
Kspace  | 3.0887     | 3.5932     | 4.0968     |  12.5 | 35.53
Neigh   | 0.031699   | 0.032      | 0.032433   |   0.1 |  0.32
Comm    | 1.2818     | 1.3009     | 1.3191     |   0.6 | 12.86
Output  | 5.2187e-05 | 5.4201e-05 | 6.376e-05  |   0.0 |  0.00
Modify  | 1.1161     | 1.2178     | 1.2591     |   4.5 | 12.04
Other   |            | 0.1153     |            |       |  1.14

Nlocal:    63.25 ave 73 max 56 min
Histogram: 5 7 9 4 4 5 2 8 3 1
Nghost:    3594.29 ave 3645 max 3543 min
Histogram: 2 3 3 6 10 9 6 4 1 4
Neighs:    24512.9 ave 29150 max 20156 min
Histogram: 1 5 6 4 9 10 3 5 3 2

Total # of neighbors = 1176620
Ave neighs/atom = 387.556
Ave special neighs/atom = 1.97628
Neighbor list builds = 47
Dangerous builds = 0
PPPM initialization ...
  extracting TIP4P info from pair style
  using 12-bit tables for long-range coulomb (../kspace.cpp:321)
  G vector (1/distance) = 0.312185
  grid = 30 30 30
  stencil order = 5
  estimated absolute RMS force accuracy = 0.00338987
  estimated relative force accuracy = 1.02085e-05
  using double precision FFTs
  3d grid and FFT values/proc = 3825 640
Setting up Verlet run ...
  Unit style    : real
  Current step  : 20000
  Time step     : 0.5
Per MPI rank memory allocation (min/avg/max) = 8.132 | 8.326 | 8.399 Mbytes
Step Density Temp Press TotEng 
   20000    1.0370251    291.65949   -1532.5135   -11734.267 
   25000    1.0325896    296.20191    374.94491   -11784.504 
Loop time of 9.82956 on 48 procs for 5000 steps with 3036 atoms

Performance: 21.975 ns/day, 1.092 hours/ns, 508.670 timesteps/s
99.5% CPU use with 48 MPI tasks x no OpenMP threads

MPI task timing breakdown:
Section |  min time  |  avg time  |  max time  |%varavg| %total
---------------------------------------------------------------
Pair    | 3.4326     | 3.8787     | 4.5817     |  13.2 | 39.46
Bond    | 0.0011058  | 0.0012751  | 0.0024815  |   0.5 |  0.01
Kspace  | 2.569      | 3.2744     | 3.7184     |  14.4 | 33.31
Neigh   | 0.079977   | 0.080764   | 0.08168    |   0.1 |  0.82
Comm    | 1.2875     | 1.2969     | 1.3044     |   0.4 | 13.19
Output  | 6.3346e-05 | 6.5313e-05 | 7.794e-05  |   0.0 |  0.00
Modify  | 1.1164     | 1.215      | 1.2551     |   4.4 | 12.36
Other   |            | 0.08247    |            |       |  0.84

Nlocal:    63.25 ave 69 max 55 min
Histogram: 1 4 2 6 2 7 9 7 3 7
Nghost:    3587.17 ave 3619 max 3541 min
Histogram: 2 6 5 3 0 0 6 12 10 4
Neighs:    24401 ave 28990 max 20770 min
Histogram: 5 3 7 8 8 2 7 2 3 3

Total # of neighbors = 1171246
Ave neighs/atom = 385.786
Ave special neighs/atom = 1.97628
Neighbor list builds = 116
Dangerous builds = 0
PPPM initialization ...
  extracting TIP4P info from pair style
  using 12-bit tables for long-range coulomb (../kspace.cpp:321)
  G vector (1/distance) = 0.312083
  grid = 30 30 30
  stencil order = 5
  estimated absolute RMS force accuracy = 0.0034043
  estimated relative force accuracy = 1.0252e-05
  using double precision FFTs
  3d grid and FFT values/proc = 3825 640
Setting up Verlet run ...
  Unit style    : real
  Current step  : 0
  Time step     : 2
Per MPI rank memory allocation (min/avg/max) = 8.132 | 8.358 | 8.399 Mbytes
Step Density Temp Press TotEng 
       0    1.0325896    296.20191    320.87322   -11784.504 
  100000    1.0441569     301.5783    1284.3558   -11766.433 
  200000     1.028784    297.11972   -352.01737   -11725.961 
  300000    1.0408182    287.80785   -478.95159   -11864.708 
  400000    1.0419193    292.81219   -232.47371   -11772.597 
  500000    1.0219884    292.42626   -98.879635   -11788.111 
  600000    1.0367825    297.33388     139.4407   -11718.152 
  700000    1.0279946    293.13731    -2.563282   -11772.637 
  800000    1.0354671    303.23951    469.34682   -11869.653 
  900000    1.0400279    307.06313    1090.2904   -11746.163 
 1000000    1.0258792    306.55398    136.76524   -11703.475 
 1100000    1.0388306    307.23573   -102.25302    -11793.35 
 1200000    1.0349056    301.95699    -273.5209   -11816.788 
 1300000    1.0330563    298.34244   -20.324608   -11843.291 
 1400000    1.0302612    298.65344    682.58427   -11775.147 
 1500000    1.0205935    291.68091    9.5431553   -11726.507 
 1600000    1.0243942    296.20797   -23.542734   -11752.645 
 1700000    1.0367025    290.70194    -393.3038   -11812.909 
 1800000    1.0364697    308.31483    316.17987   -11666.178 
 1900000    1.0329124     303.6837     410.4449   -11735.767 
 2000000    1.0242076    294.43869   -355.24262   -11853.342 
 2100000    1.0342519    290.34734   -606.96912   -11793.467 
 2200000    1.0301608    300.60879   -585.10456   -11769.377 
 2300000    1.0341926    301.21165   -189.73654   -11778.259 
 2400000    1.0410366    294.42709    782.36164   -11759.117 
 2500000    1.0316183    294.64298    591.48682   -11795.946 
 2600000    1.0399025    296.14363    228.82827   -11722.175 
 2700000    1.0389376    293.31486    222.57981    -11878.44 
 2800000    1.0309706    306.37881    119.39556   -11669.824 
 2900000     1.034005    289.94291   -415.07006   -11863.189 
 3000000    1.0344722    292.31661   -502.91098   -11809.435 
 3100000    1.0364012    300.59372    1040.0826   -11776.485 
 3200000    1.0278101    305.19379   -46.799254   -11815.972 
 3300000    1.0409426    300.60165   -856.83494   -11817.485 
 3400000    1.0228671    294.98371   -320.01696   -11826.244 
 3500000    1.0433367    298.81436   -69.004711   -11811.503 
 3600000    1.0307648    294.38617   -526.39336   -11844.805 
 3700000    1.0385967     291.5068    9.4996496    -11750.97 
 3800000    1.0213078    296.47746    362.90873   -11760.243 
 3900000    1.0361724    292.49248   -236.65372   -11749.524 
 4000000    1.0322205     300.0138    305.93819   -11736.518 
 4100000    1.0416239    294.05309    149.36733   -11792.788 
 4200000    1.0397713    296.63737   -638.61918   -11706.907 
 4300000    1.0244286    295.93342    123.29725   -11769.848 
 4400000    1.0285649    298.95385    391.05826   -11815.776 
 4500000    1.0289023     299.8848   -407.80803    -11749.96 
 4600000    1.0473373    289.52243   -465.99233   -11882.588 
 4700000    1.0253124    290.90604   -415.79913   -11864.453 
 4800000    1.0285294     295.9441    58.915621   -11801.333 
 4900000    1.0344998    296.53197    151.14902   -11727.442 
 5000000    1.0274099    304.53534   -145.34937   -11709.324 
Loop time of 9920.31 on 48 procs for 5000000 steps with 3036 atoms

Performance: 87.094 ns/day, 0.276 hours/ns, 504.016 timesteps/s
99.6% CPU use with 48 MPI tasks x no OpenMP threads

MPI task timing breakdown:
Section |  min time  |  avg time  |  max time  |%varavg| %total
---------------------------------------------------------------
Pair    | 3508.6     | 3789       | 4035.4     | 232.9 | 38.19
Bond    | 1.0953     | 1.2511     | 2.3821     |  15.9 |  0.01
Kspace  | 2899.1     | 3148.2     | 3434.3     | 259.3 | 31.74
Neigh   | 299.96     | 301.69     | 303.91     |   5.8 |  3.04
Comm    | 1368.1     | 1374.5     | 1381.7     |   8.4 | 13.86
Output  | 0.0029885  | 0.0030821  | 0.003801   |   0.2 |  0.00
Modify  | 1116.9     | 1216.8     | 1254.5     | 140.7 | 12.27
Other   |            | 88.72      |            |       |  0.89

Nlocal:    63.25 ave 73 max 55 min
Histogram: 4 3 5 9 7 7 4 4 4 1
Nghost:    3570.04 ave 3607 max 3538 min
Histogram: 5 2 7 4 8 8 6 2 3 3
Neighs:    24310.6 ave 28278 max 20143 min
Histogram: 4 1 4 6 8 8 4 5 5 3

Total # of neighbors = 1166911
Ave neighs/atom = 384.358
Ave special neighs/atom = 1.97628
Neighbor list builds = 437677
Dangerous builds = 0
PPPM initialization ...
  extracting TIP4P info from pair style
  using 12-bit tables for long-range coulomb (../kspace.cpp:321)
  G vector (1/distance) = 0.311963
  grid = 30 30 30
  stencil order = 5
  estimated absolute RMS force accuracy = 0.00342131
  estimated relative force accuracy = 1.03032e-05
  using double precision FFTs
  3d grid and FFT values/proc = 3825 640
Setting up Verlet run ...
  Unit style    : real
  Current step  : 0
  Time step     : 2
Per MPI rank memory allocation (min/avg/max) = 8.376 | 8.389 | 8.399 Mbytes
Step Density Temp Press TotEng 
       0    1.0274099    304.53534   -115.69497   -11709.324 
  100000    1.0353712    298.90277    54.379052    -11796.04 
  200000    1.0470065    300.35387    420.30412   -11788.705 
  300000    1.0382532    294.41539    102.43599   -11866.297 
  400000    1.0276928    304.28016   -530.87076   -11765.723 
  500000    1.0462295    297.26403    573.63042   -11722.963 
  600000    1.0334577    304.19072   -527.13759   -11723.979 
  700000     1.035553    296.94126    39.588889   -11808.568 
  800000     1.042416    299.98567    111.68209   -11706.632 
  900000    1.0233176    302.01448   -271.70112   -11708.971 
 1000000    1.0337764    290.99271    119.42091     -11783.8 
 1100000    1.0305428    298.45025    18.886192   -11785.113 
 1200000    1.0308286    296.46701   -3.7049971    -11726.79 
 1300000    1.0388523    298.38825   -199.55925   -11808.591 
 1400000     1.029057     301.9338   -334.47957   -11633.954 
 1500000    1.0358511    295.14292     277.0237   -11911.661 
 1600000    1.0324979    304.63477   -375.24435   -11633.059 
 1700000    1.0401252    302.25687    238.83986   -11676.375 
 1800000    1.0316651    307.01622    359.29655   -11710.741 
 1900000    1.0359373    296.32736   -556.28313   -11732.144 
 2000000    1.0311312    310.91344    216.26943   -11731.574 
 2100000    1.0435115    301.05991    118.15998   -11805.765 
 2200000    1.0332101    297.30811   -321.01949   -11761.963 
 2300000    1.0434703    291.63148    140.92444   -11892.963 
 2400000    1.0361115     296.6183   -39.930705   -11868.809 
 2500000    1.0401646    299.83969    384.79172   -11810.284 
 2600000    1.0361422    301.46339    161.50111   -11744.237 
 2700000    1.0435027    289.20681   -126.33164   -11885.386 
 2800000    1.0428183    288.25603   -157.09715   -11972.551 
 2900000    1.0374659     295.7946    424.71199   -11779.804 
 3000000    1.0244761    297.38423   -480.27192   -11744.668 
 3100000    1.0394714    295.72864    386.08711   -11866.444 
 3200000    1.0390251    294.89933    -326.6808   -11865.105 
 3300000    1.0353965     301.6713    233.51427   -11756.595 
 3400000    1.0226873    300.62978   -223.74914   -11706.505 
 3500000    1.0244423    290.05542   -618.20064   -11800.805 
 3600000    1.0403566    296.23221    123.85354   -11748.615 
 3700000    1.0467617    291.36739    191.19142   -11830.567 
 3800000    1.0322328    305.99792   -146.96452   -11727.628 
 3900000    1.0361685    301.25937    432.32884   -11749.892 
 4000000    1.0241055    305.01637    97.568275   -11630.593 
 4100000    1.0447548    297.26542    1220.0997    -11731.25 
 4200000    1.0210892    296.84312    304.97248   -11720.628 
 4300000    1.0335316    295.61764   -328.26854   -11846.036 
 4400000    1.0253558    295.50172   -76.539502   -11768.109 
 4500000      1.04002    304.82861   -130.50841   -11725.087 
 4600000    1.0384668    303.82352   -132.43598   -11741.878 
 4700000    1.0352876      295.799    629.74326   -11875.116 
 4800000    1.0238177    293.36994   -198.80702   -11856.619 
 4900000    1.0468458    291.02834    78.271046   -11815.919 
 5000000    1.0386017    293.36676   -377.47795   -11884.116 
Loop time of 10117.8 on 48 procs for 5000000 steps with 3036 atoms

Performance: 85.394 ns/day, 0.281 hours/ns, 494.180 timesteps/s
99.6% CPU use with 48 MPI tasks x no OpenMP threads

MPI task timing breakdown:
Section |  min time  |  avg time  |  max time  |%varavg| %total
---------------------------------------------------------------
Pair    | 3545       | 3878.3     | 4161.4     | 256.4 | 38.33
Bond    | 1.1527     | 1.3019     | 2.634      |  18.1 |  0.01
Kspace  | 2887.3     | 3173.1     | 3507.8     | 286.8 | 31.36
Neigh   | 295.53     | 297.69     | 300.22     |   6.3 |  2.94
Comm    | 1366       | 1372.9     | 1380.3     |   8.7 | 13.57
Output  | 2.8451     | 2.8453     | 2.8454     |   0.0 |  0.03
Modify  | 1202.1     | 1302.6     | 1348.2     | 136.6 | 12.87
Other   |            | 89.03      |            |       |  0.88

Nlocal:    63.25 ave 73 max 52 min
Histogram: 2 1 1 7 13 6 8 5 2 3
Nghost:    3615.04 ave 3663 max 3582 min
Histogram: 6 4 5 10 7 8 2 4 1 1
Neighs:    24572 ave 29965 max 20636 min
Histogram: 2 2 7 16 8 4 3 4 0 2

Total # of neighbors = 1179458
Ave neighs/atom = 388.491
Ave special neighs/atom = 1.97628
Neighbor list builds = 437618
Dangerous builds = 0
Changing box ...
  orthogonal box = (0.134431 0.134431 0.134431) to (31.4129 31.3734 31.3734)
  orthogonal box = (0.134431 0.134431 0.134431) to (31.4129 31.4129 31.3734)
  orthogonal box = (0.134431 0.134431 0.134431) to (31.4129 31.4129 31.4129)
PPPM initialization ...
  extracting TIP4P info from pair style
  using 12-bit tables for long-range coulomb (../kspace.cpp:321)
  G vector (1/distance) = 0.312131
  grid = 30 30 30
  stencil order = 5
  estimated absolute RMS force accuracy = 0.00339749
  estimated relative force accuracy = 1.02314e-05
  using double precision FFTs
  3d grid and FFT values/proc = 3825 640
Setting up Verlet run ...
  Unit style    : real
  Current step  : 5000000
  Time step     : 0.001
Per MPI rank memory allocation (min/avg/max) = 8.376 | 8.389 | 8.399 Mbytes
Step Density Temp Press TotEng 
 5000000    1.0346781    293.36676     103521.6   -11929.564 
 5005000    1.0346781    294.92358   -956.07716   -11869.715 
Loop time of 7.52628 on 48 procs for 5000 steps with 3036 atoms

Performance: 0.057 ns/day, 418.127 hours/ns, 664.339 timesteps/s
99.5% CPU use with 48 MPI tasks x no OpenMP threads

MPI task timing breakdown:
Section |  min time  |  avg time  |  max time  |%varavg| %total
---------------------------------------------------------------
Pair    | 2.3972     | 2.7833     | 3.4053     |  13.0 | 36.98
Bond    | 0.00085329 | 0.0010075  | 0.0017048  |   0.4 |  0.01
Kspace  | 2.1327     | 2.7438     | 3.1092     |  12.8 | 36.46
Neigh   | 0          | 0          | 0          |   0.0 |  0.00
Comm    | 1.24       | 1.2588     | 1.2773     |   0.7 | 16.73
Output  | 4.9837e-05 | 5.0962e-05 | 6.2924e-05 |   0.0 |  0.00
Modify  | 0.70013    | 0.70441    | 0.71096    |   0.4 |  9.36
Other   |            | 0.03488    |            |       |  0.46

Nlocal:    63.25 ave 75 max 52 min
Histogram: 2 0 3 10 14 7 6 4 1 1
Nghost:    3607.85 ave 3652 max 3573 min
Histogram: 6 3 3 7 11 8 3 3 3 1
Neighs:    24480.5 ave 29582 max 20900 min
Histogram: 2 1 13 12 7 5 2 2 2 2

Total # of neighbors = 1175065
Ave neighs/atom = 387.044
Ave special neighs/atom = 1.97628
Neighbor list builds = 0
Dangerous builds = 0
PPPM initialization ...
  extracting TIP4P info from pair style
  using 12-bit tables for long-range coulomb (../kspace.cpp:321)
  G vector (1/distance) = 0.312131
  grid = 30 30 30
  stencil order = 5
  estimated absolute RMS force accuracy = 0.00339749
  estimated relative force accuracy = 1.02314e-05
  using double precision FFTs
  3d grid and FFT values/proc = 3825 640
Setting up Verlet run ...
  Unit style    : real
  Current step  : 5005000
  Time step     : 0.01
Per MPI rank memory allocation (min/avg/max) = 8.376 | 8.389 | 8.399 Mbytes
Step Density Temp Press TotEng 
 5005000    1.0346781    294.92358   -956.05502   -11869.715 
 5010000    1.0346781    300.92054   -536.73682   -11810.093 
Loop time of 7.466 on 48 procs for 5000 steps with 3036 atoms

Performance: 0.579 ns/day, 41.478 hours/ns, 669.702 timesteps/s
99.5% CPU use with 48 MPI tasks x no OpenMP threads

MPI task timing breakdown:
Section |  min time  |  avg time  |  max time  |%varavg| %total
---------------------------------------------------------------
Pair    | 2.3398     | 2.7804     | 3.3466     |  12.8 | 37.24
Bond    | 0.00081583 | 0.00098614 | 0.0014859  |   0.0 |  0.01
Kspace  | 2.1306     | 2.6891     | 3.1075     |  12.7 | 36.02
Neigh   | 0.0013313  | 0.0013521  | 0.0013771  |   0.0 |  0.02
Comm    | 1.2427     | 1.2541     | 1.2759     |   0.6 | 16.80
Output  | 4.9346e-05 | 5.0864e-05 | 6.1669e-05 |   0.0 |  0.00
Modify  | 0.7022     | 0.7054     | 0.70901    |   0.2 |  9.45
Other   |            | 0.03454    |            |       |  0.46

Nlocal:    63.25 ave 73 max 52 min
Histogram: 2 2 3 6 7 8 5 11 3 1
Nghost:    3603.4 ave 3625 max 3574 min
Histogram: 1 2 3 4 9 6 10 5 4 4
Neighs:    24494.9 ave 29362 max 19339 min
Histogram: 1 1 2 11 8 9 9 3 2 2

Total # of neighbors = 1175757
Ave neighs/atom = 387.272
Ave special neighs/atom = 1.97628
Neighbor list builds = 2
Dangerous builds = 0
PPPM initialization ...
  extracting TIP4P info from pair style
  using 12-bit tables for long-range coulomb (../kspace.cpp:321)
  G vector (1/distance) = 0.312131
  grid = 30 30 30
  stencil order = 5
  estimated absolute RMS force accuracy = 0.00339749
  estimated relative force accuracy = 1.02314e-05
  using double precision FFTs
  3d grid and FFT values/proc = 3825 640
Setting up Verlet run ...
  Unit style    : real
  Current step  : 5010000
  Time step     : 0.1
Per MPI rank memory allocation (min/avg/max) = 8.376 | 8.389 | 8.399 Mbytes
Step Density Temp Press TotEng 
 5010000    1.0346781    300.92054   -536.66107   -11810.093 
 5015000    1.0346781    309.21949    108.72303   -11813.786 
Loop time of 7.45686 on 48 procs for 5000 steps with 3036 atoms

Performance: 5.793 ns/day, 4.143 hours/ns, 670.524 timesteps/s
99.5% CPU use with 48 MPI tasks x no OpenMP threads

MPI task timing breakdown:
Section |  min time  |  avg time  |  max time  |%varavg| %total
---------------------------------------------------------------
Pair    | 2.463      | 2.7829     | 3.2343     |  11.6 | 37.32
Bond    | 0.00080335 | 0.0010035  | 0.0018201  |   0.4 |  0.01
Kspace  | 2.2164     | 2.6637     | 2.9684     |  11.6 | 35.72
Neigh   | 0.013729   | 0.013867   | 0.014057   |   0.1 |  0.19
Comm    | 1.244      | 1.2567     | 1.2718     |   0.5 | 16.85
Output  | 5.1107e-05 | 5.2103e-05 | 6.5836e-05 |   0.0 |  0.00
Modify  | 0.70061    | 0.70429    | 0.70848    |   0.2 |  9.44
Other   |            | 0.03431    |            |       |  0.46

Nlocal:    63.25 ave 74 max 55 min
Histogram: 2 6 5 10 7 7 5 2 3 1
Nghost:    3579.83 ave 3623 max 3540 min
Histogram: 1 7 6 8 6 3 7 3 5 2
Neighs:    24499.7 ave 29893 max 20618 min
Histogram: 4 7 3 6 14 4 4 3 2 1

Total # of neighbors = 1175986
Ave neighs/atom = 387.347
Ave special neighs/atom = 1.97628
Neighbor list builds = 21
Dangerous builds = 0
PPPM initialization ...
  extracting TIP4P info from pair style
  using 12-bit tables for long-range coulomb (../kspace.cpp:321)
  G vector (1/distance) = 0.312131
  grid = 30 30 30
  stencil order = 5
  estimated absolute RMS force accuracy = 0.00339749
  estimated relative force accuracy = 1.02314e-05
  using double precision FFTs
  3d grid and FFT values/proc = 3825 640
Setting up Verlet run ...
  Unit style    : real
  Current step  : 5015000
  Time step     : 0.2
Per MPI rank memory allocation (min/avg/max) = 8.376 | 8.389 | 8.399 Mbytes
Step Density Temp Press TotEng 
 5015000    1.0346781    309.21949    109.05384   -11813.786 
 5020000    1.0346781    302.74266   -181.28192   -11825.962 
Loop time of 7.48878 on 48 procs for 5000 steps with 3036 atoms

Performance: 11.537 ns/day, 2.080 hours/ns, 667.665 timesteps/s
99.5% CPU use with 48 MPI tasks x no OpenMP threads

MPI task timing breakdown:
Section |  min time  |  avg time  |  max time  |%varavg| %total
---------------------------------------------------------------
Pair    | 2.4105     | 2.7821     | 3.2328     |  10.6 | 37.15
Bond    | 0.00082543 | 0.00097735 | 0.0015584  |   0.0 |  0.01
Kspace  | 2.2064     | 2.6575     | 3.0154     |  10.7 | 35.49
Neigh   | 0.029417   | 0.030611   | 0.030977   |   0.2 |  0.41
Comm    | 1.259      | 1.2714     | 1.2894     |   0.5 | 16.98
Output  | 4.3964e-05 | 4.4974e-05 | 5.8577e-05 |   0.0 |  0.00
Modify  | 0.70612    | 0.71091    | 0.71859    |   0.4 |  9.49
Other   |            | 0.03514    |            |       |  0.47

Nlocal:    63.25 ave 73 max 55 min
Histogram: 2 7 3 8 4 11 6 4 2 1
Nghost:    3596.19 ave 3634 max 3551 min
Histogram: 1 0 5 13 2 5 10 5 4 3
Neighs:    24486.7 ave 27950 max 19903 min
Histogram: 1 1 6 4 8 4 11 4 2 7

Total # of neighbors = 1175360
Ave neighs/atom = 387.141
Ave special neighs/atom = 1.97628
Neighbor list builds = 45
Dangerous builds = 0
PPPM initialization ...
  extracting TIP4P info from pair style
  using 12-bit tables for long-range coulomb (../kspace.cpp:321)
  G vector (1/distance) = 0.312131
  grid = 30 30 30
  stencil order = 5
  estimated absolute RMS force accuracy = 0.00339749
  estimated relative force accuracy = 1.02314e-05
  using double precision FFTs
  3d grid and FFT values/proc = 3825 640
Setting up Verlet run ...
  Unit style    : real
  Current step  : 5020000
  Time step     : 0.5
Per MPI rank memory allocation (min/avg/max) = 8.376 | 8.389 | 8.399 Mbytes
Step Density Temp Press TotEng 
 5020000    1.0346781    302.74266   -182.40292   -11825.962 
 5025000    1.0346781    292.46735     -124.006   -11815.723 
Loop time of 7.59422 on 48 procs for 5000 steps with 3036 atoms

Performance: 28.443 ns/day, 0.844 hours/ns, 658.395 timesteps/s
99.5% CPU use with 48 MPI tasks x no OpenMP threads

MPI task timing breakdown:
Section |  min time  |  avg time  |  max time  |%varavg| %total
---------------------------------------------------------------
Pair    | 2.4326     | 2.7865     | 3.1268     |   9.6 | 36.69
Bond    | 0.00079933 | 0.00098637 | 0.0016094  |   0.0 |  0.01
Kspace  | 2.3554     | 2.6972     | 3.0372     |   9.7 | 35.52
Neigh   | 0.07391    | 0.074476   | 0.075165   |   0.1 |  0.98
Comm    | 1.271      | 1.2845     | 1.3075     |   0.7 | 16.91
Output  | 6.3324e-05 | 6.4598e-05 | 7.6159e-05 |   0.0 |  0.00
Modify  | 0.71013    | 0.71556    | 0.71917    |   0.4 |  9.42
Other   |            | 0.0349     |            |       |  0.46

Nlocal:    63.25 ave 70 max 54 min
Histogram: 2 3 2 4 6 10 5 2 9 5
Nghost:    3588.19 ave 3640 max 3550 min
Histogram: 2 6 6 10 6 8 3 5 1 1
Neighs:    24487 ave 29618 max 19735 min
Histogram: 1 1 7 10 6 11 5 4 2 1

Total # of neighbors = 1175376
Ave neighs/atom = 387.146
Ave special neighs/atom = 1.97628
Neighbor list builds = 113
Dangerous builds = 0
PPPM initialization ...
  extracting TIP4P info from pair style
  using 12-bit tables for long-range coulomb (../kspace.cpp:321)
  G vector (1/distance) = 0.312131
  grid = 30 30 30
  stencil order = 5
  estimated absolute RMS force accuracy = 0.00339749
  estimated relative force accuracy = 1.02314e-05
  using double precision FFTs
  3d grid and FFT values/proc = 3825 640
Setting up Verlet run ...
  Unit style    : real
  Current step  : 5025000
  Time step     : 2
Per MPI rank memory allocation (min/avg/max) = 8.376 | 8.389 | 8.399 Mbytes
Step Density Temp Press TotEng 
 5025000    1.0346781    292.46735   -140.87658   -11815.723 
 5100000    1.0346781    295.35823   -405.26729   -11906.765 
 5200000    1.0346781    300.71698   -564.32299   -11753.819 
 5300000    1.0346781    291.88799    479.90624    -11766.12 
 5400000    1.0346781    294.53669   -74.319361   -11743.052 
 5500000    1.0346781    302.39609    333.65442   -11787.259 
 5600000    1.0346781    299.63719   -168.11306   -11799.049 
 5700000    1.0346781    301.82856   -135.80796   -11671.127 
 5800000    1.0346781    301.06344   -188.53497   -11768.926 
 5900000    1.0346781    294.72424   -365.45347   -11833.473 
 6000000    1.0346781    293.39303   -416.97562   -11826.627 
 6100000    1.0346781    303.06361    484.43382   -11811.216 
 6200000    1.0346781    307.45027    246.16698   -11696.283 
 6300000    1.0346781    296.08775    271.92952   -11728.558 
 6400000    1.0346781    309.92357    119.44208   -11690.175 
 6500000    1.0346781     303.2712    340.30719   -11606.002 
 6600000    1.0346781    310.02744   -218.26575   -11666.215 
 6700000    1.0346781    308.36369    240.22951   -11675.965 
 6800000    1.0346781     296.8225   -396.47505   -11806.837 
 6900000    1.0346781    301.05573   -341.34621   -11747.376 
 7000000    1.0346781    289.88605    53.443955   -11792.297 
 7025000    1.0346781    300.31106    161.81817   -11848.206 
Loop time of 3178.84 on 48 procs for 2000000 steps with 3036 atoms

Performance: 108.719 ns/day, 0.221 hours/ns, 629.160 timesteps/s
99.5% CPU use with 48 MPI tasks x no OpenMP threads

MPI task timing breakdown:
Section |  min time  |  avg time  |  max time  |%varavg| %total
---------------------------------------------------------------
Pair    | 1031.8     | 1115.7     | 1209.2     | 142.7 | 35.10
Bond    | 0.34075    | 0.39876    | 0.62655    |   6.9 |  0.01
Kspace  | 999.02     | 1091.7     | 1176.2     | 142.3 | 34.34
Neigh   | 115.97     | 116.79     | 117.81     |   4.0 |  3.67
Comm    | 546.81     | 549.39     | 552.67     |   5.5 | 17.28
Output  | 1.4222     | 1.4223     | 1.4224     |   0.0 |  0.04
Modify  | 287.57     | 288.89     | 290.25     |   4.2 |  9.09
Other   |            | 14.51      |            |       |  0.46

Nlocal:    63.25 ave 76 max 51 min
Histogram: 2 3 6 4 11 4 10 4 1 3
Nghost:    3585.5 ave 3619 max 3540 min
Histogram: 4 3 1 4 3 8 5 9 6 5
Neighs:    24470.1 ave 29808 max 19516 min
Histogram: 1 5 5 13 3 7 4 2 4 4

Total # of neighbors = 1174565
Ave neighs/atom = 386.879
Ave special neighs/atom = 1.97628
Neighbor list builds = 173733
Dangerous builds = 0
PPPM initialization ...
  extracting TIP4P info from pair style
  using 12-bit tables for long-range coulomb (../kspace.cpp:321)
  G vector (1/distance) = 0.312131
  grid = 30 30 30
  stencil order = 5
  estimated absolute RMS force accuracy = 0.00339749
  estimated relative force accuracy = 1.02314e-05
  using double precision FFTs
  3d grid and FFT values/proc = 3825 640
Setting up Verlet run ...
  Unit style    : real
  Current step  : 0
  Time step     : 2
Per MPI rank memory allocation (min/avg/max) = 13.95 | 13.96 | 13.97 Mbytes
Step Density Temp Press TotEng 
       0    1.0346781    300.31106    162.32125   -11848.206 
  100000    1.0346781    308.36085    187.19338   -11594.194 
  200000    1.0346781    292.92738   -409.27915   -11850.956 
  300000    1.0346781    302.74213   -888.59705   -11801.848 
  400000    1.0346781    311.71595    -557.2777   -11635.139 
  500000    1.0346781    290.48887    -22.71895   -11841.178 
  600000    1.0346781    296.27352    215.35674   -11738.699 
  700000    1.0346781    298.48105    -457.7258   -11746.302 
  800000    1.0346781    297.95795   -236.79617   -11773.966 
  900000    1.0346781    299.70782    52.546581   -11796.872 
 1000000    1.0346781    296.27235   -608.15191   -11839.171 
 1100000    1.0346781    295.97123   -419.91316   -11763.734 
 1200000    1.0346781    291.42266   -217.36403   -11852.165 
 1300000    1.0346781     296.7585    264.76827   -11835.848 
 1400000    1.0346781    296.55751    -151.2906   -11807.925 
 1500000    1.0346781    297.12286    292.04765   -11841.191 
 1600000    1.0346781    297.42163    292.97905   -11822.674 
 1700000    1.0346781     289.8543    225.42866   -11879.232 
 1800000    1.0346781    285.50998    -608.9191   -11776.764 
 1900000    1.0346781    290.16551    150.49224   -11786.658 
 2000000    1.0346781    303.43048   -165.14823   -11768.826 
 2100000    1.0346781     300.3182    4.4058262   -11783.068 
 2200000    1.0346781    297.93079   -68.941071   -11729.263 
 2300000    1.0346781    292.07599    481.11512   -11788.392 
 2400000    1.0346781    297.57804    1.3257407   -11764.444 
 2500000    1.0346781    291.86376     438.9923   -11913.861 
 2600000    1.0346781    296.04796    47.584091   -11847.652 
 2700000    1.0346781    294.07385    338.58354   -11825.157 
 2800000    1.0346781    298.96057   -42.872119   -11866.878 
 2900000    1.0346781    301.50345    497.18546   -11685.023 
 3000000    1.0346781    292.93396   -345.02811   -11855.495 
 3100000    1.0346781    295.95863    24.528541   -11875.842 
 3200000    1.0346781    301.66946   -321.03063   -11749.353 
 3300000    1.0346781    297.41078   -726.66446   -11739.131 
 3400000    1.0346781    304.05301    13.293522   -11738.491 
 3500000    1.0346781    295.65753   -333.25787   -11813.792 
 3600000    1.0346781    301.18301    174.92883   -11745.201 
 3700000    1.0346781    300.21126   -251.40801   -11828.088 
 3800000    1.0346781    297.51403   -225.22249   -11771.955 
 3900000    1.0346781    304.28381   -140.09183   -11676.082 
 4000000    1.0346781    295.26055   -73.893286   -11789.379 
 4100000    1.0346781    297.09175   -64.943817   -11786.155 
 4200000    1.0346781    304.37239    407.52215   -11821.019 
 4300000    1.0346781    295.20612   -1040.1401   -11861.975 
 4400000    1.0346781    297.16299   -633.86232   -11861.763 
 4500000    1.0346781    303.36054    -121.1474   -11841.992 
 4600000    1.0346781    293.90191   -201.58721   -11844.871 
 4700000    1.0346781    294.05496    764.60301   -11831.066 
 4800000    1.0346781    296.87565    348.23647   -11851.099 
 4900000    1.0346781    295.96587     46.04165   -11876.318 
 5000000    1.0346781      298.481    52.684104   -11695.567 
 5100000    1.0346781    303.61988    150.32648    -11744.13 
 5200000    1.0346781    299.61381   -178.46324    -11736.47 
 5300000    1.0346781    304.74535    43.304989   -11697.379 
 5400000    1.0346781    309.16293   -71.142795   -11706.155 
 5500000    1.0346781    292.77035   -209.80068   -11799.988 
 5600000    1.0346781    293.78734   -435.55038    -11852.53 
 5700000    1.0346781    291.23895   -733.50947   -11756.263 
 5800000    1.0346781    302.38949   -344.08918   -11774.509 
 5900000    1.0346781    294.47331   -513.06337   -11824.199 
 6000000    1.0346781    298.27558    241.98359   -11764.563 
 6100000    1.0346781    298.28424    457.15213   -11677.914 
 6200000    1.0346781    296.08446    38.870982   -11704.948 
 6300000    1.0346781    294.27603   -204.22555   -11785.375 
 6400000    1.0346781    296.13137   -1016.9786   -11786.163 
 6500000    1.0346781    298.34238    241.17759   -11800.934 
 6600000    1.0346781    290.09354   -387.24346   -11870.273 
 6700000    1.0346781    293.27795     172.6333   -11778.738 
 6800000    1.0346781    301.67823    304.81597   -11730.316 
 6900000    1.0346781    301.23813   -857.29715   -11779.091 
 7000000    1.0346781    299.91358    209.90152   -11707.124 
 7100000    1.0346781    300.59805    126.44205   -11781.722 
 7200000    1.0346781    302.98052   -309.05254   -11738.735 
 7300000    1.0346781    295.86535   -87.920817   -11745.193 
 7400000    1.0346781     296.3501   -305.58978   -11739.175 
 7500000    1.0346781    299.03353   -460.66409   -11783.715 
 7600000    1.0346781    301.81844    661.72957   -11817.254 
 7700000    1.0346781    300.17937   -205.70369   -11622.923 
 7800000    1.0346781    304.09639    28.549742   -11790.226 
 7900000    1.0346781     302.8033   -4.0121458   -11783.618 
 8000000    1.0346781    303.85601     899.0687    -11792.77 
 8100000    1.0346781    296.52145   -303.19488   -11824.505 
 8200000    1.0346781    298.32177    -274.4287   -11760.837 
 8300000    1.0346781    302.55066      261.138   -11706.181 
 8400000    1.0346781    302.31348   -541.10681   -11742.382 
 8500000    1.0346781    294.88796   -166.93277   -11808.753 
 8600000    1.0346781    306.10111    -307.9436    -11665.57 
 8700000    1.0346781    311.88765   -255.98573   -11740.698 
 8800000    1.0346781    305.54382   -998.21922   -11721.726 
 8900000    1.0346781    295.91473   -212.75215   -11741.459 
 9000000    1.0346781    301.00226    108.06746   -11767.617 
 9100000    1.0346781    301.38213    -402.7894   -11674.568 
 9200000    1.0346781    301.48178   -887.02488   -11779.131 
 9300000    1.0346781     292.4764    579.03476   -11882.277 
 9400000    1.0346781    293.07902    299.26193    -11859.19 
 9500000    1.0346781    296.13477   -358.02409   -11861.956 
 9600000    1.0346781    289.52676    289.91967    -11864.06 
 9700000    1.0346781    303.49145    254.81614   -11842.352 
 9800000    1.0346781    305.90653    488.22034   -11669.028 
 9900000    1.0346781    296.16892   -233.05166   -11765.081 
10000000    1.0346781    304.44849   -453.27686   -11768.919 
10100000    1.0346781    296.42461    51.644129   -11879.159 
10200000    1.0346781    288.70361    256.93722   -11901.785 
10300000    1.0346781    300.80942    744.45466   -11823.773 
10400000    1.0346781     299.5587   -247.41914   -11807.345 
10500000    1.0346781     291.2554    318.53698    -11754.95 
10600000    1.0346781    297.70852   -271.05618   -11816.896 
10700000    1.0346781     290.6657     226.6155   -11871.299 
10800000    1.0346781    296.73507    521.55826   -11814.392 
10900000    1.0346781    293.97049    192.65248    -11811.65 
11000000    1.0346781    297.70915    223.69993   -11746.976 
11100000    1.0346781     298.6113   -628.79265   -11848.411 
11200000    1.0346781    303.90245   -529.37196   -11709.688 
11300000    1.0346781    298.03656    3.1221234   -11743.194 
11400000    1.0346781    294.76938    94.965201   -11807.915 
11500000    1.0346781    301.77477    9.5288713   -11669.903 
11600000    1.0346781    298.50809    224.09761   -11778.792 
11700000    1.0346781    294.08772    30.131961   -11916.038 
11800000    1.0346781    300.08263    626.63611   -11757.935 
11900000    1.0346781    298.85734     188.7811   -11746.709 
12000000    1.0346781     306.9726    563.75841   -11709.836 
12100000    1.0346781    302.18467   -213.52712   -11753.393 
12200000    1.0346781    290.10265    187.34842    -11789.68 
12300000    1.0346781     297.7084   -913.87438   -11881.319 
12400000    1.0346781    295.04808    563.13483   -11790.129 
12500000    1.0346781    298.52714    507.26763   -11819.727 
12600000    1.0346781    301.15339   -251.09404   -11854.445 
12700000    1.0346781      291.851    750.11779    -11845.49 
12800000    1.0346781    302.23687   -701.50721   -11783.917 
12900000    1.0346781    292.47742    765.48785   -11844.119 
13000000    1.0346781    296.45616   -452.21797   -11711.185 
13100000    1.0346781    304.29932    875.53715   -11771.518 
13200000    1.0346781    296.32852    31.457947   -11730.905 
13300000    1.0346781    292.90084    500.50897   -11770.786 
13400000    1.0346781     298.6999   -61.486679   -11848.753 
13500000    1.0346781    307.41908    93.713594   -11699.177 
13600000    1.0346781    297.06209     444.9315   -11811.997 
13700000    1.0346781    296.45238     -432.726   -11844.375 
13800000    1.0346781    309.74654    207.08031    -11651.41 
13900000    1.0346781    306.75453    -397.8703   -11731.227 
14000000    1.0346781    291.38532    823.44339   -11766.775 
14100000    1.0346781    302.30171   -398.74154   -11726.048 
14200000    1.0346781    285.93584   -419.04302   -11806.715 
14300000    1.0346781    294.99084   -251.90045    -11812.27 
14400000    1.0346781    295.11561   -29.100278   -11719.728 
14500000    1.0346781    294.11305    -710.8537   -11829.001 
14600000    1.0346781     301.3937    761.94653   -11848.954 
14700000    1.0346781    296.19067    69.215694   -11782.382 
14800000    1.0346781    294.35316    497.70784   -11736.821 
14900000    1.0346781    287.49078   -513.37727   -11745.293 
15000000    1.0346781    308.59953    -105.3583   -11684.418 
15100000    1.0346781    301.87075    428.36454   -11828.697 
15200000    1.0346781    305.00343   -142.89597   -11681.704 
15300000    1.0346781    302.25125    33.475773    -11753.44 
15400000    1.0346781    290.32286    219.04767   -11788.355 
15500000    1.0346781    295.63969    106.39562   -11796.637 
15600000    1.0346781    294.86551   -468.88816   -11846.449 
15700000    1.0346781    288.85766   -308.96347   -11809.217 
15800000    1.0346781    304.20067   -1.8496339   -11729.123 
15900000    1.0346781    295.68582   -248.89177    -11878.61 
16000000    1.0346781    311.35114   -47.221853    -11687.49 
16100000    1.0346781      295.975    269.22787   -11911.793 
16200000    1.0346781    304.11517    264.98719   -11733.076 
16300000    1.0346781    305.36634    16.504493   -11848.861 
16400000    1.0346781    305.39994   -706.13798   -11753.443 
16500000    1.0346781    303.85391   -308.10123   -11876.111 
16600000    1.0346781    298.42323   -1.3540768   -11753.905 
16700000    1.0346781    295.19005    806.56037   -11733.618 
16800000    1.0346781    297.89269   -91.602122   -11829.112 
16900000    1.0346781    300.65106    384.46427   -11775.706 
17000000    1.0346781    296.34877    31.973749   -11790.546 
17100000    1.0346781    300.44442    30.280455   -11825.979 
17200000    1.0346781    299.25058    434.63372   -11768.801 
17300000    1.0346781    292.80262   -40.283358   -11786.352 
17400000    1.0346781     301.2491    271.76506   -11674.775 
17500000    1.0346781     301.1822   -208.90399   -11783.394 
17600000    1.0346781    308.88281    -63.74225   -11662.641 
17700000    1.0346781    300.51037    401.26999   -11689.789 
17800000    1.0346781    294.78394    191.28637    -11825.68 
17900000    1.0346781     296.4422   -223.00337   -11735.467 
18000000    1.0346781    303.43328   -342.89482   -11745.032 
18100000    1.0346781    301.31188    566.33968   -11764.269 
18200000    1.0346781    293.30526   -293.05012   -11777.681 
18300000    1.0346781    289.21617    153.82173   -11846.946 
18400000    1.0346781     294.7058   -158.18488   -11748.972 
18500000    1.0346781    298.17928    212.83821   -11765.667 
18600000    1.0346781    300.40193   -117.28918   -11746.054 
18700000    1.0346781    297.17266     625.4465     -11871.4 
18800000    1.0346781    289.98853    79.407536    -11843.09 
18900000    1.0346781    298.12252    33.309762    -11641.91 
19000000    1.0346781    296.27662    82.794911   -11755.368 
19100000    1.0346781    303.77919    503.28238   -11784.742 
19200000    1.0346781    298.31891   -282.49813   -11803.546 
19300000    1.0346781    302.12735    465.42182   -11792.782 
19400000    1.0346781    288.23157   -258.60082   -11852.517 
19500000    1.0346781    297.82662    108.36811   -11773.784 
19600000    1.0346781    309.71023   -411.29176    -11728.54 
19700000    1.0346781    291.56374    608.76614   -11823.427 
19800000    1.0346781    309.43222   -213.32498   -11774.606 
19900000    1.0346781      292.677    441.02092   -11834.033 
20000000    1.0346781    298.33225    438.56195   -11774.271 
20100000    1.0346781    299.35891    531.58052   -11779.951 
20200000    1.0346781     294.7164    83.426667   -11809.613 
20300000    1.0346781     298.3965   -82.486777   -11845.199 
20400000    1.0346781    305.38608    393.08565   -11722.742 
20500000    1.0346781    296.76346    526.56307   -11901.331 
20600000    1.0346781    293.22749   -1.6028023   -11866.341 
20700000    1.0346781    298.53834    230.89373   -11837.488 
20800000    1.0346781    302.59756   -555.18615   -11793.509 
20900000    1.0346781     303.6234    -140.9487   -11723.388 
21000000    1.0346781    292.52267   -48.637414   -11893.196 
21100000    1.0346781    295.43454    190.29398   -11746.462 
21200000    1.0346781    305.38985   -942.47471   -11832.723 
21300000    1.0346781    299.00023   -207.89748   -11749.017 
21400000    1.0346781    304.61459    -105.4587   -11622.271 
21500000    1.0346781    302.78076    63.388127   -11786.894 
21600000    1.0346781      295.349   -202.87193   -11796.156 
21700000    1.0346781     297.6311   -969.43364   -11779.328 
21800000    1.0346781    298.00587    541.66132   -11720.957 
21900000    1.0346781    296.34638    40.798698   -11806.691 
22000000    1.0346781    295.72601   -163.18647   -11768.336 
22100000    1.0346781    297.90334   -246.95761   -11750.262 
22200000    1.0346781    293.39511   -264.04517   -11812.053 
22300000    1.0346781    297.88141   -461.33275   -11781.317 
22400000    1.0346781    295.63456   -61.349193   -11802.622 
22500000    1.0346781    314.82279    174.16234   -11673.368 
22600000    1.0346781    302.02567   -458.91416   -11751.869 
22700000    1.0346781    294.56451   -178.84287   -11833.398 
22800000    1.0346781    299.65509    331.97285   -11799.897 
22900000    1.0346781    295.26302   -487.14974    -11796.99 
23000000    1.0346781    307.29439    410.33674   -11755.894 
23100000    1.0346781    294.61446   -831.02448   -11893.525 
23200000    1.0346781     293.0325   -487.86604   -11859.308 
23300000    1.0346781    302.16595     329.6525   -11745.909 
23400000    1.0346781    289.88998    80.994735    -11932.91 
23500000    1.0346781    293.76641   -194.84288   -11844.279 
23600000    1.0346781    289.54097   -397.81084   -11848.394 
23700000    1.0346781    295.02925     43.62447   -11819.636 
23800000    1.0346781    298.53816    29.384875     -11777.8 
srun: Job step aborted: Waiting up to 32 seconds for job step to finish.
slurmstepd: error: *** JOB 2117018 ON cmp200 CANCELLED AT 2023-03-14T02:37:34 DUE TO TIME LIMIT ***
slurmstepd: error: *** STEP 2117018.0 ON cmp200 CANCELLED AT 2023-03-14T02:37:34 DUE TO TIME LIMIT ***
