created by fftool

1745 atoms
1110 bonds
555 angles
4 atom types
1 bond types
1 angle types
0.000000 26.764354 xlo xhi
0.000000 26.764354 ylo yhi
0.000000 26.764354 zlo zhi
Atoms

      1       1    1  -1.112800  2.520625e+01  6.008880e+00  1.469489e+01  # Ow water
      2       1    2   0.556400  2.502523e+01  6.162037e+00  1.562225e+01  # Hw water
      3       1    2   0.556400  2.526439e+01  5.056730e+00  1.461578e+01  # Hw water
      4       2    1  -1.112800  2.159448e+01  1.504127e+00  1.153771e+01  # Ow water
      5       2    2   0.556400  2.240057e+01  1.499984e+00  1.102154e+01  # Hw water
      6       2    2   0.556400  2.089270e+01  1.508452e+00  1.088678e+01  # Hw water
      7       3    1  -1.112800  8.139644e+00  1.308145e+01  2.204646e+01  # Ow water
      8       3    2   0.556400  8.229203e+00  1.385625e+01  2.149158e+01  # Hw water
      9       3    2   0.556400  9.014772e+00  1.294331e+01  2.240881e+01  # Hw water
     10       4    1  -1.112800  1.039590e+01  9.522856e+00  4.337616e+00  # Ow water
     11       4    2   0.556400  1.031121e+01  8.718205e+00  4.849076e+00  # Hw water
     12       4    2   0.556400  9.735697e+00  1.011095e+01  4.704369e+00  # Hw water
     13       5    1  -1.112800  1.381721e+01  1.500264e+00  2.047278e+01  # Ow water
     14       5    2   0.556400  1.311448e+01  1.520093e+00  1.982316e+01  # Hw water
     15       5    2   0.556400  1.337692e+01  1.660004e+00  2.130756e+01  # Hw water
     16       6    1  -1.112800  1.149102e+01  9.411327e+00  1.489991e+01  # Ow water
     17       6    2   0.556400  1.106470e+01  1.025190e+01  1.473285e+01  # Hw water
     18       6    2   0.556400  1.162117e+01  9.031364e+00  1.403105e+01  # Hw water
     19       7    1  -1.112800  2.502979e+01  5.147319e+00  2.475989e+00  # Ow water
     20       7    2   0.556400  2.425739e+01  5.411896e+00  2.975622e+00  # Hw water
     21       7    2   0.556400  2.526531e+01  4.291252e+00  2.833634e+00  # Hw water
     22       8    1  -1.112800  1.507442e+01  3.893107e+00  1.171752e+01  # Ow water
     23       8    2   0.556400  1.421413e+01  3.809236e+00  1.212872e+01  # Hw water
     24       8    2   0.556400  1.569052e+01  3.903826e+00  1.245000e+01  # Hw water
     25       9    1  -1.112800  2.274245e+01  2.274586e+01  2.500910e+01  # Ow water
     26       9    2   0.556400  2.182870e+01  2.261910e+01  2.526449e+01  # Hw water
     27       9    2   0.556400  2.269895e+01  2.303591e+01  2.409794e+01  # Hw water
     28      10    1  -1.112800  3.837949e+00  2.177515e+01  1.558342e+01  # Ow water
     29      10    2   0.556400  3.466271e+00  2.133118e+01  1.634563e+01  # Hw water
     30      10    2   0.556400  4.779265e+00  2.161352e+01  1.564690e+01  # Hw water
     31      11    1  -1.112800  2.020476e+01  5.519005e+00  1.207383e+01  # Ow water
     32      11    2   0.556400  2.037586e+01  5.887083e+00  1.294071e+01  # Hw water
     33      11    2   0.556400  2.105401e+01  5.187670e+00  1.178190e+01  # Hw water
     34      12    1  -1.112800  2.507201e+01  1.688349e+01  2.218188e+01  # Ow water
     35      12    2   0.556400  2.526469e+01  1.602852e+01  2.256675e+01  # Hw water
     36      12    2   0.556400  2.526292e+01  1.677576e+01  2.125012e+01  # Hw water
     37      13    1  -1.112800  3.805894e+00  1.501317e+01  7.900642e+00  # Ow water
     38      13    2   0.556400  3.654847e+00  1.436519e+01  7.212500e+00  # Hw water
     39      13    2   0.556400  3.852851e+00  1.584922e+01  7.436910e+00  # Hw water
     40      14    1  -1.112800  7.732480e+00  1.138945e+01  1.090839e+01  # Ow water
     41      14    2   0.556400  8.536630e+00  1.152259e+01  1.040655e+01  # Hw water
     42      14    2   0.556400  7.050047e+00  1.128610e+01  1.024520e+01  # Hw water
     43      15    1  -1.112800  2.267589e+01  2.096421e+01  3.601643e+00  # Ow water
     44      15    2   0.556400  2.255939e+01  2.067229e+01  2.697521e+00  # Hw water
     45      15    2   0.556400  2.243161e+01  2.188962e+01  3.588403e+00  # Hw water
     46      16    1  -1.112800  1.275718e+01  2.526434e+01  1.994536e+01  # Ow water
     47      16    2   0.556400  1.200512e+01  2.520554e+01  1.935614e+01  # Hw water
     48      16    2   0.556400  1.351897e+01  2.520344e+01  1.936899e+01  # Hw water
     49      17    1  -1.112800  1.514329e+01  9.699641e+00  1.465325e+01  # Ow water
     50      17    2   0.556400  1.419324e+01  9.806212e+00  1.460551e+01  # Hw water
     51      17    2   0.556400  1.531863e+01  8.891379e+00  1.417138e+01  # Hw water
     52      18    1  -1.112800  2.376521e+00  1.620080e+01  2.526410e+01  # Ow water
     53      18    2   0.556400  2.902109e+00  1.620557e+01  2.446413e+01  # Hw water
     54      18    2   0.556400  1.500170e+00  1.594768e+01  2.497398e+01  # Hw water
     55      19    1  -1.112800  2.439490e+01  1.821132e+01  8.854973e+00  # Ow water
     56      19    2   0.556400  2.398694e+01  1.759346e+01  9.461643e+00  # Hw water
     57      19    2   0.556400  2.526436e+01  1.836995e+01  9.222552e+00  # Hw water
     58      20    1  -1.112800  2.526427e+01  1.766287e+01  2.467850e+01  # Ow water
     59      20    2   0.556400  2.526427e+01  1.841982e+01  2.526438e+01  # Hw water
     60      20    2   0.556400  2.526427e+01  1.690592e+01  2.526438e+01  # Hw water
     61      21    1  -1.112800  1.419467e+01  3.413047e+00  1.814948e+01  # Ow water
     62      21    2   0.556400  1.407154e+01  3.033764e+00  1.727930e+01  # Hw water
     63      21    2   0.556400  1.330810e+01  3.603978e+00  1.845569e+01  # Hw water
     64      22    1  -1.112800  5.270188e+00  1.141312e+01  1.281218e+01  # Ow water
     65      22    2   0.556400  5.820220e+00  1.063486e+01  1.272274e+01  # Hw water
     66      22    2   0.556400  4.783641e+00  1.145902e+01  1.198914e+01  # Hw water
     67      23    1  -1.112800  1.893378e+01  2.397870e+01  2.372696e+01  # Ow water
     68      23    2   0.556400  1.923121e+01  2.468113e+01  2.314872e+01  # Hw water
     69      23    2   0.556400  1.968185e+01  2.338460e+01  2.378733e+01  # Hw water
     70      24    1  -1.112800  1.359583e+01  1.099000e+01  8.456378e+00  # Ow water
     71      24    2   0.556400  1.345310e+01  1.045872e+01  9.239703e+00  # Hw water
     72      24    2   0.556400  1.403331e+01  1.177846e+01  8.777590e+00  # Hw water
     73      25    1  -1.112800  1.314407e+01  1.030871e+01  2.501705e+01  # Ow water
     74      25    2   0.556400  1.393355e+01  9.827380e+00  2.526459e+01  # Hw water
     75      25    2   0.556400  1.278721e+01  9.819428e+00  2.427577e+01  # Hw water
     76      26    1  -1.112800  2.433823e+01  1.500088e+00  6.603751e+00  # Ow water
     77      26    2   0.556400  2.526438e+01  1.664857e+00  6.780715e+00  # Hw water
     78      26    2   0.556400  2.389471e+01  2.302050e+00  6.880121e+00  # Hw water
     79      27    1  -1.112800  1.399118e+01  5.854030e+00  3.930716e+00  # Ow water
     80      27    2   0.556400  1.472529e+01  5.331307e+00  4.253298e+00  # Hw water
     81      27    2   0.556400  1.386493e+01  5.559561e+00  3.028729e+00  # Hw water
     82      28    1  -1.112800  1.954906e+01  1.577639e+01  6.697908e+00  # Ow water
     83      28    2   0.556400  1.972740e+01  1.664170e+01  7.066233e+00  # Hw water
     84      28    2   0.556400  1.922172e+01  1.595373e+01  5.816077e+00  # Hw water
     85      29    1  -1.112800  4.674949e+00  4.179721e+00  1.752018e+01  # Ow water
     86      29    2   0.556400  5.021555e+00  5.068729e+00  1.759606e+01  # Hw water
     87      29    2   0.556400  4.317855e+00  3.986561e+00  1.838702e+01  # Hw water
     88      30    1  -1.112800  2.433893e+01  8.842182e+00  2.461737e+01  # Ow water
     89      30    2   0.556400  2.526290e+01  9.046398e+00  2.476160e+01  # Hw water
     90      30    2   0.556400  2.413899e+01  8.165296e+00  2.526396e+01  # Hw water
     91      31    1  -1.112800  4.362764e+00  2.525598e+01  2.041529e+01  # Ow water
     92      31    2   0.556400  4.202417e+00  2.526435e+01  1.947165e+01  # Hw water
     93      31    2   0.556400  3.489510e+00  2.526436e+01  2.080719e+01  # Hw water
     94      32    1  -1.112800  1.416708e+01  1.815481e+01  1.893043e+01  # Ow water
     95      32    2   0.556400  1.428367e+01  1.765600e+01  1.973903e+01  # Hw water
     96      32    2   0.556400  1.488269e+01  1.786521e+01  1.836451e+01  # Hw water
     97      33    1  -1.112800  1.633351e+00  5.849920e+00  1.100979e+01  # Ow water
     98      33    2   0.556400  1.500385e+00  4.902027e+00  1.101661e+01  # Hw water
     99      33    2   0.556400  1.500037e+00  6.117506e+00  1.191910e+01  # Hw water
    100      34    1  -1.112800  2.526434e+01  1.046693e+01  9.806058e+00  # Ow water
    101      34    2   0.556400  2.514537e+01  1.138846e+01  1.003598e+01  # Hw water
    102      34    2   0.556400  2.521114e+01  1.044920e+01  8.850504e+00  # Hw water
    103      35    1  -1.112800  6.349667e+00  1.763629e+01  1.207415e+01  # Ow water
    104      35    2   0.556400  7.097468e+00  1.793082e+01  1.259403e+01  # Hw water
    105      35    2   0.556400  6.119521e+00  1.678473e+01  1.244578e+01  # Hw water
    106      36    1  -1.112800  2.024965e+01  6.044136e+00  9.308250e+00  # Ow water
    107      36    2   0.556400  2.027828e+01  5.515206e+00  8.510977e+00  # Hw water
    108      36    2   0.556400  2.041233e+01  6.938617e+00  9.008799e+00  # Hw water
    109      37    1  -1.112800  4.533753e+00  9.752652e+00  9.460125e+00  # Ow water
    110      37    2   0.556400  5.042647e+00  9.407740e+00  1.019381e+01  # Hw water
    111      37    2   0.556400  5.181333e+00  9.915050e+00  8.774197e+00  # Hw water
    112      38    1  -1.112800  1.182794e+01  1.887075e+01  1.040661e+01  # Ow water
    113      38    2   0.556400  1.227763e+01  1.922800e+01  1.117237e+01  # Hw water
    114      38    2   0.556400  1.248467e+01  1.889297e+01  9.710597e+00  # Hw water
    115      39    1  -1.112800  3.501858e+00  2.461984e+01  4.795217e+00  # Ow water
    116      39    2   0.556400  2.816225e+00  2.526357e+01  4.617038e+00  # Hw water
    117      39    2   0.556400  4.004485e+00  2.457322e+01  3.981939e+00  # Hw water
    118      40    1  -1.112800  1.500137e+00  6.723783e+00  2.526435e+01  # Ow water
    119      40    2   0.556400  1.599008e+00  7.658923e+00  2.508556e+01  # Hw water
    120      40    2   0.556400  2.383043e+00  6.366553e+00  2.516900e+01  # Hw water
    121      41    1  -1.112800  6.492361e+00  2.006918e+01  2.526430e+01  # Ow water
    122      41    2   0.556400  7.364994e+00  1.967596e+01  2.525329e+01  # Hw water
    123      41    2   0.556400  6.473557e+00  2.063329e+01  2.449122e+01  # Hw water
    124      42    1  -1.112800  2.014285e+00  3.737177e+00  2.523195e+01  # Ow water
    125      42    2   0.556400  2.167143e+00  3.887877e+00  2.429913e+01  # Hw water
    126      42    2   0.556400  1.500459e+00  2.930202e+00  2.526364e+01  # Hw water
    127      43    1  -1.112800  3.862134e+00  1.969190e+01  1.027014e+01  # Ow water
    128      43    2   0.556400  3.829514e+00  2.062875e+01  1.046372e+01  # Hw water
    129      43    2   0.556400  4.591464e+00  1.936345e+01  1.079590e+01  # Hw water
    130      44    1  -1.112800  2.053326e+01  2.252074e+01  2.088943e+00  # Ow water
    131      44    2   0.556400  2.041062e+01  2.326591e+01  1.500792e+00  # Hw water
    132      44    2   0.556400  2.065699e+01  2.177219e+01  1.505340e+00  # Hw water
    133      45    1  -1.112800  8.918272e+00  6.350362e+00  4.809917e+00  # Ow water
    134      45    2   0.556400  8.131790e+00  6.587356e+00  5.301352e+00  # Hw water
    135      45    2   0.556400  8.630344e+00  5.657121e+00  4.215995e+00  # Hw water
    136      46    1  -1.112800  1.872005e+01  2.863022e+00  1.057529e+01  # Ow water
    137      46    2   0.556400  1.814167e+01  3.275982e+00  1.121651e+01  # Hw water
    138      46    2   0.556400  1.937085e+01  3.534705e+00  1.037148e+01  # Hw water
    139      47    1  -1.112800  2.027265e+01  1.334509e+01  4.021308e+00  # Ow water
    140      47    2   0.556400  2.087050e+01  1.269011e+01  3.661024e+00  # Hw water
    141      47    2   0.556400  2.067424e+01  1.418493e+01  3.798512e+00  # Hw water
    142      48    1  -1.112800  2.447491e+01  7.283978e+00  1.807523e+01  # Ow water
    143      48    2   0.556400  2.526439e+01  7.486105e+00  1.857732e+01  # Hw water
    144      48    2   0.556400  2.410760e+01  6.512124e+00  1.850598e+01  # Hw water
    145      49    1  -1.112800  1.043302e+01  1.813086e+01  1.341596e+01  # Ow water
    146      49    2   0.556400  1.117907e+01  1.761683e+01  1.310707e+01  # Hw water
    147      49    2   0.556400  1.076136e+01  1.902899e+01  1.345810e+01  # Hw water
    148      50    1  -1.112800  4.288692e+00  1.850132e+00  2.472709e+01  # Ow water
    149      50    2   0.556400  4.619505e+00  2.571018e+00  2.526292e+01  # Hw water
    150      50    2   0.556400  3.550432e+00  1.499768e+00  2.522553e+01  # Hw water
    151      51    1  -1.112800  2.149164e+01  2.378743e+00  2.227963e+01  # Ow water
    152      51    2   0.556400  2.137658e+01  2.994608e+00  2.300330e+01  # Hw water
    153      51    2   0.556400  2.179560e+01  1.572545e+00  2.269662e+01  # Hw water
    154      52    1  -1.112800  1.788745e+01  2.431681e+01  5.438785e+00  # Ow water
    155      52    2   0.556400  1.803173e+01  2.399603e+01  4.548551e+00  # Hw water
    156      52    2   0.556400  1.800661e+01  2.526440e+01  5.374701e+00  # Hw water
    157      53    1  -1.112800  2.519320e+01  2.479826e+01  2.468417e+01  # Ow water
    158      53    2   0.556400  2.526265e+01  2.392969e+01  2.508039e+01  # Hw water
    159      53    2   0.556400  2.456170e+01  2.526279e+01  2.523340e+01  # Hw water
    160      54    1  -1.112800  1.904060e+01  2.181984e+01  7.630532e+00  # Ow water
    161      54    2   0.556400  1.848788e+01  2.185610e+01  6.849885e+00  # Hw water
    162      54    2   0.556400  1.936723e+01  2.092035e+01  7.651752e+00  # Hw water
    163      55    1  -1.112800  1.967422e+01  1.862928e+01  1.694430e+01  # Ow water
    164      55    2   0.556400  2.027143e+01  1.937718e+01  1.695911e+01  # Hw water
    165      55    2   0.556400  1.993308e+01  1.813077e+01  1.616925e+01  # Hw water
    166      56    1  -1.112800  1.500089e+00  3.964934e+00  1.717668e+01  # Ow water
    167      56    2   0.556400  2.309612e+00  3.601391e+00  1.681788e+01  # Hw water
    168      56    2   0.556400  1.593444e+00  4.911413e+00  1.706856e+01  # Hw water
    169      57    1  -1.112800  1.502505e+01  1.244116e+01  1.467171e+01  # Ow water
    170      57    2   0.556400  1.454622e+01  1.242071e+01  1.384313e+01  # Hw water
    171      57    2   0.556400  1.594648e+01  1.238918e+01  1.441776e+01  # Hw water
    172      58    1  -1.112800  1.827518e+01  1.211141e+01  1.169702e+01  # Ow water
    173      58    2   0.556400  1.861436e+01  1.121664e+01  1.172110e+01  # Hw water
    174      58    2   0.556400  1.816926e+01  1.235276e+01  1.261721e+01  # Hw water
    175      59    1  -1.112800  2.467796e+01  4.010094e+00  9.351398e+00  # Ow water
    176      59    2   0.556400  2.525910e+01  3.842669e+00  8.609458e+00  # Hw water
    177      59    2   0.556400  2.526439e+01  4.079114e+00  1.010477e+01  # Hw water
    178      60    1  -1.112800  1.500466e+00  1.739777e+00  1.476127e+01  # Ow water
    179      60    2   0.556400  1.952213e+00  1.500319e+00  1.395207e+01  # Hw water
    180      60    2   0.556400  2.112086e+00  1.500165e+00  1.545750e+01  # Hw water
    181      61    1  -1.112800  2.466978e+01  1.792447e+01  5.696364e+00  # Ow water
    182      61    2   0.556400  2.524649e+01  1.745686e+01  5.092223e+00  # Hw water
    183      61    2   0.556400  2.526439e+01  1.840631e+01  6.271254e+00  # Hw water
    184      62    1  -1.112800  6.882556e+00  1.668952e+01  3.473845e+00  # Ow water
    185      62    2   0.556400  7.256734e+00  1.609597e+01  4.124938e+00  # Hw water
    186      62    2   0.556400  6.488858e+00  1.739359e+01  3.989126e+00  # Hw water
    187      63    1  -1.112800  2.526429e+01  1.517772e+00  9.739982e+00  # Ow water
    188      63    2   0.556400  2.518797e+01  1.500021e+00  1.069397e+01  # Hw water
    189      63    2   0.556400  2.436005e+01  1.500025e+00  9.426512e+00  # Hw water
    190      64    1  -1.112800  1.502193e+01  2.110984e+01  2.012669e+01  # Ow water
    191      64    2   0.556400  1.590484e+01  2.079387e+01  1.993469e+01  # Hw water
    192      64    2   0.556400  1.513817e+01  2.171826e+01  2.085644e+01  # Hw water
    193      65    1  -1.112800  2.280208e+01  8.146819e+00  2.112029e+00  # Ow water
    194      65    2   0.556400  2.239359e+01  8.759310e+00  1.500295e+00  # Hw water
    195      65    2   0.556400  2.344635e+01  7.674652e+00  1.584579e+00  # Hw water
    196      66    1  -1.112800  1.472351e+01  2.436131e+01  2.233152e+01  # Ow water
    197      66    2   0.556400  1.409310e+01  2.382784e+01  2.184755e+01  # Hw water
    198      66    2   0.556400  1.448383e+01  2.526427e+01  2.212307e+01  # Hw water
    199      67    1  -1.112800  2.098030e+01  2.205228e+01  9.190160e+00  # Ow water
    200      67    2   0.556400  2.098741e+01  2.164536e+01  1.005653e+01  # Hw water
    201      67    2   0.556400  2.076187e+01  2.296909e+01  9.357418e+00  # Hw water
    202      68    1  -1.112800  4.951121e+00  1.519037e+00  1.814172e+01  # Ow water
    203      68    2   0.556400  4.128060e+00  1.500016e+00  1.765341e+01  # Hw water
    204      68    2   0.556400  5.630528e+00  1.500025e+00  1.746772e+01  # Hw water
    205      69    1  -1.112800  3.365911e+00  7.893554e+00  1.242598e+01  # Ow water
    206      69    2   0.556400  3.351991e+00  7.412785e+00  1.325356e+01  # Hw water
    207      69    2   0.556400  4.018786e+00  8.580853e+00  1.255866e+01  # Hw water
    208      70    1  -1.112800  4.726137e+00  2.289047e+00  1.225891e+01  # Ow water
    209      70    2   0.556400  5.266782e+00  1.500173e+00  1.229904e+01  # Hw water
    210      70    2   0.556400  3.828027e+00  1.969062e+00  1.234399e+01  # Hw water
    211      71    1  -1.112800  1.540536e+01  5.723510e+00  1.900313e+01  # Ow water
    212      71    2   0.556400  1.449038e+01  6.002110e+00  1.904089e+01  # Hw water
    213      71    2   0.556400  1.587458e+01  6.485906e+00  1.866429e+01  # Hw water
    214      72    1  -1.112800  2.072196e+01  2.481022e+01  7.435932e+00  # Ow water
    215      72    2   0.556400  2.046469e+01  2.526197e+01  6.632209e+00  # Hw water
    216      72    2   0.556400  2.151396e+01  2.526438e+01  7.723501e+00  # Hw water
    217      73    1  -1.112800  2.070076e+00  2.470573e+01  1.716636e+00  # Ow water
    218      73    2   0.556400  1.501419e+00  2.396651e+01  1.501182e+00  # Hw water
    219      73    2   0.556400  1.534723e+00  2.526395e+01  2.280555e+00  # Hw water
    220      74    1  -1.112800  1.491662e+01  1.657204e+01  1.115381e+01  # Ow water
    221      74    2   0.556400  1.567056e+01  1.699430e+01  1.074211e+01  # Hw water
    222      74    2   0.556400  1.419087e+01  1.717795e+01  1.100419e+01  # Hw water
    223      75    1  -1.112800  1.699302e+00  1.929085e+01  4.849815e+00  # Ow water
    224      75    2   0.556400  1.500278e+00  1.960425e+01  5.732083e+00  # Hw water
    225      75    2   0.556400  1.499954e+00  1.835503e+01  4.876896e+00  # Hw water
    226      76    1  -1.112800  1.670464e+01  1.717019e+01  5.958306e+00  # Ow water
    227      76    2   0.556400  1.642408e+01  1.805234e+01  5.714733e+00  # Hw water
    228      76    2   0.556400  1.676788e+01  1.670031e+01  5.126782e+00  # Hw water
    229      77    1  -1.112800  1.571257e+01  1.655569e+01  2.526371e+01  # Ow water
    230      77    2   0.556400  1.477869e+01  1.674939e+01  2.518265e+01  # Hw water
    231      77    2   0.556400  1.577355e+01  1.560933e+01  2.513369e+01  # Hw water
    232      78    1  -1.112800  6.291035e+00  4.544648e+00  7.633294e+00  # Ow water
    233      78    2   0.556400  5.383257e+00  4.750083e+00  7.856822e+00  # Hw water
    234      78    2   0.556400  6.636041e+00  5.356145e+00  7.260909e+00  # Hw water
    235      79    1  -1.112800  8.072344e+00  1.440577e+01  2.486487e+01  # Ow water
    236      79    2   0.556400  7.289298e+00  1.402623e+01  2.526364e+01  # Hw water
    237      79    2   0.556400  7.801816e+00  1.463504e+01  2.397578e+01  # Hw water
    238      80    1  -1.112800  9.644677e+00  2.136104e+01  2.064178e+01  # Ow water
    239      80    2   0.556400  9.748189e+00  2.170639e+01  2.152849e+01  # Hw water
    240      80    2   0.556400  1.015241e+01  2.054960e+01  2.063948e+01  # Hw water
    241      81    1  -1.112800  4.902933e+00  2.389329e+00  1.497570e+01  # Ow water
    242      81    2   0.556400  4.553281e+00  1.500121e+00  1.491842e+01  # Hw water
    243      81    2   0.556400  4.166768e+00  2.917223e+00  1.528492e+01  # Hw water
    244      82    1  -1.112800  2.252443e+01  1.554548e+01  1.833270e+01  # Ow water
    245      82    2   0.556400  2.295455e+01  1.608557e+01  1.766974e+01  # Hw water
    246      82    2   0.556400  2.321980e+01  1.532868e+01  1.895374e+01  # Hw water
    247      83    1  -1.112800  1.647436e+01  2.526392e+01  2.504884e+01  # Ow water
    248      83    2   0.556400  1.644680e+01  2.512263e+01  2.410253e+01  # Hw water
    249      83    2   0.556400  1.740698e+01  2.526414e+01  2.526439e+01  # Hw water
    250      84    1  -1.112800  4.108998e+00  6.056699e+00  2.217232e+01  # Ow water
    251      84    2   0.556400  4.195336e+00  6.658471e+00  2.143296e+01  # Hw water
    252      84    2   0.556400  4.688193e+00  5.325992e+00  2.195592e+01  # Hw water
    253      85    1  -1.112800  7.806486e+00  2.509970e+01  1.118127e+01  # Ow water
    254      85    2   0.556400  6.920234e+00  2.526353e+01  1.085886e+01  # Hw water
    255      85    2   0.556400  8.370918e+00  2.526446e+01  1.042596e+01  # Hw water
    256      86    1  -1.112800  5.395502e+00  6.690353e+00  1.028004e+01  # Ow water
    257      86    2   0.556400  5.570101e+00  6.893018e+00  1.119910e+01  # Hw water
    258      86    2   0.556400  6.206261e+00  6.291585e+00  9.963999e+00  # Hw water
    259      87    1  -1.112800  8.863801e+00  1.038986e+01  1.543224e+00  # Ow water
    260      87    2   0.556400  9.622237e+00  9.807509e+00  1.500010e+00  # Hw water
    261      87    2   0.556400  9.235075e+00  1.127107e+01  1.500014e+00  # Hw water
    262      88    1  -1.112800  2.198936e+01  1.663634e+01  1.229672e+01  # Ow water
    263      88    2   0.556400  2.124856e+01  1.713574e+01  1.195312e+01  # Hw water
    264      88    2   0.556400  2.268707e+01  1.676993e+01  1.165517e+01  # Hw water
    265      89    1  -1.112800  1.403374e+01  2.526224e+01  7.141621e+00  # Ow water
    266      89    2   0.556400  1.327411e+01  2.525119e+01  6.559331e+00  # Hw water
    267      89    2   0.556400  1.478797e+01  2.524344e+01  6.552545e+00  # Hw water
    268      90    1  -1.112800  2.260546e+01  1.231876e+01  1.725473e+01  # Ow water
    269      90    2   0.556400  2.188795e+01  1.168925e+01  1.732642e+01  # Hw water
    270      90    2   0.556400  2.261187e+01  1.277235e+01  1.809761e+01  # Hw water
    271      91    1  -1.112800  2.025089e+01  4.392587e+00  2.033501e+01  # Ow water
    272      91    2   0.556400  2.007071e+01  3.928594e+00  1.951741e+01  # Hw water
    273      91    2   0.556400  2.033619e+01  5.310235e+00  2.007641e+01  # Hw water
    274      92    1  -1.112800  2.214727e+01  4.567186e+00  1.662147e+01  # Ow water
    275      92    2   0.556400  2.183927e+01  4.464797e+00  1.752196e+01  # Hw water
    276      92    2   0.556400  2.261204e+01  5.403972e+00  1.662048e+01  # Hw water
    277      93    1  -1.112800  1.181094e+01  1.895273e+00  1.270827e+01  # Ow water
    278      93    2   0.556400  1.253327e+01  1.506553e+00  1.221495e+01  # Hw water
    279      93    2   0.556400  1.187403e+01  1.500017e+00  1.357776e+01  # Hw water
    280      94    1  -1.112800  4.729986e+00  2.378479e+01  1.745931e+01  # Ow water
    281      94    2   0.556400  4.986913e+00  2.461994e+01  1.706848e+01  # Hw water
    282      94    2   0.556400  3.773935e+00  2.378196e+01  1.741253e+01  # Hw water
    283      95    1  -1.112800  1.536267e+00  1.109192e+01  2.182924e+01  # Ow water
    284      95    2   0.556400  1.500404e+00  1.186019e+01  2.239906e+01  # Hw water
    285      95    2   0.556400  1.499418e+00  1.034658e+01  2.242870e+01  # Hw water
    286      96    1  -1.112800  4.027062e+00  1.077639e+01  6.434882e+00  # Ow water
    287      96    2   0.556400  4.279482e+00  1.165418e+01  6.721257e+00  # Hw water
    288      96    2   0.556400  4.308378e+00  1.073193e+01  5.521037e+00  # Hw water
    289      97    1  -1.112800  2.515818e+01  6.859371e+00  9.770180e+00  # Ow water
    290      97    2   0.556400  2.526398e+01  6.571591e+00  8.863417e+00  # Hw water
    291      97    2   0.556400  2.522823e+01  7.813114e+00  9.729002e+00  # Hw water
    292      98    1  -1.112800  1.408312e+01  8.786473e+00  1.132049e+01  # Ow water
    293      98    2   0.556400  1.353417e+01  8.673230e+00  1.209641e+01  # Hw water
    294      98    2   0.556400  1.488534e+01  8.304602e+00  1.152166e+01  # Hw water
    295      99    1  -1.112800  1.717337e+01  1.500310e+00  1.391835e+01  # Ow water
    296      99    2   0.556400  1.721289e+01  2.365898e+00  1.432507e+01  # Hw water
    297      99    2   0.556400  1.707890e+01  1.678873e+00  1.298271e+01  # Hw water
    298     100    1  -1.112800  1.075365e+01  2.526418e+01  4.519710e+00  # Ow water
    299     100    2   0.556400  1.102435e+01  2.516045e+01  5.431958e+00  # Hw water
    300     100    2   0.556400  1.156080e+01  2.515777e+01  4.016293e+00  # Hw water
    301     101    1  -1.112800  3.953494e+00  1.779570e+01  2.077913e+01  # Ow water
    302     101    2   0.556400  3.599191e+00  1.865542e+01  2.055204e+01  # Hw water
    303     101    2   0.556400  3.208382e+00  1.720022e+01  2.069885e+01  # Hw water
    304     102    1  -1.112800  1.145821e+01  1.519175e+00  7.838097e+00  # Ow water
    305     102    2   0.556400  1.101847e+01  1.507768e+00  6.987965e+00  # Hw water
    306     102    2   0.556400  1.239139e+01  1.500048e+00  7.625867e+00  # Hw water
    307     103    1  -1.112800  1.206019e+01  2.439629e+01  1.677459e+01  # Ow water
    308     103    2   0.556400  1.216590e+01  2.382448e+01  1.601427e+01  # Hw water
    309     103    2   0.556400  1.231107e+01  2.526436e+01  1.645877e+01  # Hw water
    310     104    1  -1.112800  2.077810e+01  1.705256e+01  2.249497e+01  # Ow water
    311     104    2   0.556400  2.049113e+01  1.633305e+01  2.305727e+01  # Hw water
    312     104    2   0.556400  2.096412e+01  1.777053e+01  2.310007e+01  # Hw water
    313     105    1  -1.112800  9.097785e+00  1.500382e+00  2.465452e+01  # Ow water
    314     105    2   0.556400  9.869688e+00  1.630742e+00  2.520534e+01  # Hw water
    315     105    2   0.556400  8.360109e+00  1.532439e+00  2.526364e+01  # Hw water
    316     106    1  -1.112800  1.763165e+01  1.811263e+01  9.358017e+00  # Ow water
    317     106    2   0.556400  1.814357e+01  1.780994e+01  8.607986e+00  # Hw water
    318     106    2   0.556400  1.814374e+01  1.883456e+01  9.722452e+00  # Hw water
    319     107    1  -1.112800  1.502356e+00  1.564862e+01  8.636169e+00  # Ow water
    320     107    2   0.556400  1.780944e+00  1.531115e+01  9.487480e+00  # Hw water
    321     107    2   0.556400  1.706877e+00  1.658311e+01  8.669845e+00  # Hw water
    322     108    1  -1.112800  1.045758e+01  4.033324e+00  1.801854e+01  # Ow water
    323     108    2   0.556400  1.089584e+01  4.873017e+00  1.815664e+01  # Hw water
    324     108    2   0.556400  1.004729e+01  4.115482e+00  1.715764e+01  # Hw water
    325     109    1  -1.112800  6.688846e+00  2.439024e+01  1.925693e+01  # Ow water
    326     109    2   0.556400  7.293732e+00  2.380377e+01  1.880262e+01  # Hw water
    327     109    2   0.556400  7.054370e+00  2.526437e+01  1.912083e+01  # Hw water
    328     110    1  -1.112800  4.899133e+00  1.669061e+01  1.846004e+01  # Ow water
    329     110    2   0.556400  5.220007e+00  1.611783e+01  1.776347e+01  # Hw water
    330     110    2   0.556400  4.102512e+00  1.708167e+01  1.810129e+01  # Hw water
    331     111    1  -1.112800  2.443259e+01  1.094742e+01  1.268648e+01  # Ow water
    332     111    2   0.556400  2.467894e+01  1.005117e+01  1.245782e+01  # Hw water
    333     111    2   0.556400  2.526419e+01  1.141815e+01  1.274200e+01  # Hw water
    334     112    1  -1.112800  1.449960e+01  5.761113e+00  7.700138e+00  # Ow water
    335     112    2   0.556400  1.489519e+01  5.709963e+00  8.570267e+00  # Hw water
    336     112    2   0.556400  1.369133e+01  6.256428e+00  7.832718e+00  # Hw water
    337     113    1  -1.112800  6.735316e+00  1.859270e+00  2.127850e+01  # Ow water
    338     113    2   0.556400  7.621491e+00  1.500019e+00  2.132165e+01  # Hw water
    339     113    2   0.556400  6.369822e+00  1.500031e+00  2.047005e+01  # Hw water
    340     114    1  -1.112800  2.239458e+01  1.941524e+01  1.297649e+01  # Ow water
    341     114    2   0.556400  2.169789e+01  1.927112e+01  1.361687e+01  # Hw water
    342     114    2   0.556400  2.313596e+01  1.891039e+01  1.331073e+01  # Hw water
    343     115    1  -1.112800  2.291275e+01  8.366506e+00  2.086717e+01  # Ow water
    344     115    2   0.556400  2.367262e+01  8.567313e+00  2.032082e+01  # Hw water
    345     115    2   0.556400  2.259217e+01  7.528479e+00  2.053375e+01  # Hw water
    346     116    1  -1.112800  2.052142e+01  9.082903e+00  1.178660e+01  # Ow water