LAMMPS (16 Mar 2018)
Reading data file ...
  orthogonal box = (0 0 0) to (26.7644 26.7644 26.7644)
  4 by 4 by 8 MPI processor grid
  reading atoms ...
  1745 atoms
  scanning bonds ...
  2 = max bonds/atom
  scanning angles ...
  1 = max angles/atom
  reading bonds ...
  1110 bonds
  reading angles ...
  555 angles
Finding 1-2 1-3 1-4 neighbors ...
  special bond factors lj:   0          0          0         
  special bond factors coul: 0          0          0         
  2 = max # of 1-2 neighbors
  1 = max # of 1-3 neighbors
  1 = max # of 1-4 neighbors
  2 = max # of special neighbors
Setting atom values ...
  555 settings made for charge
Setting atom values ...
  1110 settings made for charge
Setting atom values ...
  40 settings made for charge
Setting atom values ...
  40 settings made for charge
555 atoms in group wat
40 atoms in group Na
40 atoms in group Cl
Finding SHAKE clusters ...
  0 = # of size 2 clusters
  0 = # of size 3 clusters
  0 = # of size 4 clusters
  555 = # of frozen angles
PPPM initialization ...
  extracting TIP4P info from pair style
  using 12-bit tables for long-range coulomb (../kspace.cpp:321)
  G vector (1/distance) = 0.31023
  grid = 25 25 25
  stencil order = 5
  estimated absolute RMS force accuracy = 0.00365201
  estimated relative force accuracy = 1.09979e-05
  using double precision FFTs
  3d grid and FFT values/proc = 2156 200
Neighbor list info ...
  update every 1 steps, delay 0 steps, check yes
  max neighbors/atom: 2000, page size: 100000
  master list distance cutoff = 12.3092
  ghost atom cutoff = 12.3092
  binsize = 6.1546, bins = 5 5 5
  1 neighbor lists, perpetual/occasional/extra = 1 0 0
  (1) pair lj/cut/tip4p/long, perpetual
      attributes: half, newton on
      pair build: half/bin/newton
      stencil: half/bin/3d/newton
      bin: standard
Setting up Verlet run ...
  Unit style    : real
  Current step  : 0
  Time step     : 0.001
Per MPI rank memory allocation (min/avg/max) = 7.882 | 7.987 | 8.164 Mbytes
Step Density Temp Press TotEng 
       0    1.0684698     437.3201    5145889.6    2423.1819 
    5000    1.0310358    635.80193    28097.536    1493.8647 
Loop time of 3.3043 on 128 procs for 5000 steps with 1745 atoms

Performance: 0.131 ns/day, 183.572 hours/ns, 1513.179 timesteps/s
99.0% CPU use with 128 MPI tasks x no OpenMP threads

MPI task timing breakdown:
Section |  min time  |  avg time  |  max time  |%varavg| %total
---------------------------------------------------------------
Pair    | 0.34053    | 0.62595    | 1.0196     |  18.9 | 18.94
Bond    | 0.00046691 | 0.00055518 | 0.00095487 |   0.0 |  0.02
Kspace  | 1.2373     | 1.6215     | 1.9124     |  11.9 | 49.07
Neigh   | 0          | 0          | 0          |   0.0 |  0.00
Comm    | 0.38792    | 0.44761    | 0.49406    |   3.7 | 13.55
Output  | 6.3949e-05 | 7.3099e-05 | 0.00011204 |   0.0 |  0.00
Modify  | 0.4613     | 0.51279    | 0.56016    |   3.9 | 15.52
Other   |            | 0.09578    |            |       |  2.90

Nlocal:    13.6328 ave 18 max 9 min
Histogram: 2 6 14 16 22 23 24 9 7 5
Nghost:    2590.61 ave 2751 max 2462 min
Histogram: 10 11 9 30 19 12 22 7 2 6
Neighs:    4840.98 ave 7703 max 2659 min
Histogram: 5 11 22 22 23 16 14 6 7 2

Total # of neighbors = 619646
Ave neighs/atom = 355.098
Ave special neighs/atom = 1.90831
Neighbor list builds = 0
Dangerous builds = 0
PPPM initialization ...
  extracting TIP4P info from pair style
  using 12-bit tables for long-range coulomb (../kspace.cpp:321)
  G vector (1/distance) = 0.309371
  grid = 25 25 25
  stencil order = 5
  estimated absolute RMS force accuracy = 0.00378374
  estimated relative force accuracy = 1.13946e-05
  using double precision FFTs
  3d grid and FFT values/proc = 2156 200
Setting up Verlet run ...
  Unit style    : real
  Current step  : 5000
  Time step     : 0.01
Per MPI rank memory allocation (min/avg/max) = 7.882 | 7.996 | 8.164 Mbytes
Step Density Temp Press TotEng 
    5000    1.0310358    635.80193    2133825.7    1493.8641 
   10000    1.0163019    373.95474   -6174.3826   -6748.7952 
Loop time of 3.25862 on 128 procs for 5000 steps with 1745 atoms

Performance: 1.326 ns/day, 18.103 hours/ns, 1534.394 timesteps/s
99.2% CPU use with 128 MPI tasks x no OpenMP threads

MPI task timing breakdown:
Section |  min time  |  avg time  |  max time  |%varavg| %total
---------------------------------------------------------------
Pair    | 0.32636    | 0.57579    | 0.96927    |  19.2 | 17.67
Bond    | 0.00045528 | 0.00054516 | 0.00096256 |   0.0 |  0.02
Kspace  | 1.2853     | 1.684      | 1.9313     |  11.4 | 51.68
Neigh   | 0.0012034  | 0.0012465  | 0.0012842  |   0.0 |  0.04
Comm    | 0.3582     | 0.41043    | 0.4522     |   3.3 | 12.60
Output  | 5.845e-05  | 6.6831e-05 | 0.00010421 |   0.0 |  0.00
Modify  | 0.43205    | 0.48588    | 0.53875    |   4.0 | 14.91
Other   |            | 0.1006     |            |       |  3.09

Nlocal:    13.6328 ave 20 max 8 min
Histogram: 4 7 11 21 18 44 6 8 4 5
Nghost:    2400.55 ave 2486 max 2318 min
Histogram: 5 9 16 19 16 18 22 11 6 6
Neighs:    4471.95 ave 8041 max 2316 min
Histogram: 5 20 25 31 14 18 5 6 1 3

Total # of neighbors = 572410
Ave neighs/atom = 328.029
Ave special neighs/atom = 1.90831
Neighbor list builds = 6
Dangerous builds = 0
PPPM initialization ...
  extracting TIP4P info from pair style
  using 12-bit tables for long-range coulomb (../kspace.cpp:321)
  G vector (1/distance) = 0.309023
  grid = 25 25 25
  stencil order = 5
  estimated absolute RMS force accuracy = 0.00383828
  estimated relative force accuracy = 1.15589e-05
  using double precision FFTs
  3d grid and FFT values/proc = 2156 200
Setting up Verlet run ...
  Unit style    : real
  Current step  : 10000
  Time step     : 0.1
Per MPI rank memory allocation (min/avg/max) = 7.882 | 8.043 | 8.164 Mbytes
Step Density Temp Press TotEng 
   10000    1.0163019    373.95474   -71168.914   -6748.7944 
   15000    1.1617681    300.93173    544.19229   -9795.2603 
Loop time of 3.91603 on 128 procs for 5000 steps with 1745 atoms

Performance: 11.032 ns/day, 2.176 hours/ns, 1276.804 timesteps/s
99.2% CPU use with 128 MPI tasks x no OpenMP threads

MPI task timing breakdown:
Section |  min time  |  avg time  |  max time  |%varavg| %total
---------------------------------------------------------------
Pair    | 0.45389    | 0.72182    | 1.1666     |  19.9 | 18.43
Bond    | 0.00046152 | 0.00054813 | 0.00090128 |   0.0 |  0.01
Kspace  | 1.5696     | 2.0247     | 2.2787     |  12.1 | 51.70
Neigh   | 0.0048669  | 0.0050923  | 0.0053116  |   0.2 |  0.13
Comm    | 0.43587    | 0.49998    | 0.56071    |   4.1 | 12.77
Output  | 6.4461e-05 | 7.4931e-05 | 0.00011962 |   0.0 |  0.00
Modify  | 0.46794    | 0.52798    | 0.58426    |   4.0 | 13.48
Other   |            | 0.1358     |            |       |  3.47

Nlocal:    13.6328 ave 21 max 7 min
Histogram: 3 3 18 19 13 47 11 12 1 1
Nghost:    2687.67 ave 2770 max 2614 min
Histogram: 4 9 14 23 23 21 15 11 6 2
Neighs:    5235.34 ave 9311 max 2853 min
Histogram: 12 23 20 18 16 17 14 4 3 1

Total # of neighbors = 670124
Ave neighs/atom = 384.025
Ave special neighs/atom = 1.90831
Neighbor list builds = 23
Dangerous builds = 0
PPPM initialization ...
  extracting TIP4P info from pair style
  using 12-bit tables for long-range coulomb (../kspace.cpp:321)
  G vector (1/distance) = 0.312233
  grid = 25 25 25
  stencil order = 5
  estimated absolute RMS force accuracy = 0.00336099
  estimated relative force accuracy = 1.01215e-05
  using double precision FFTs
  3d grid and FFT values/proc = 2156 200
Setting up Verlet run ...
  Unit style    : real
  Current step  : 15000
  Time step     : 0.2
Per MPI rank memory allocation (min/avg/max) = 7.884 | 8.123 | 8.165 Mbytes
Step Density Temp Press TotEng 
   15000    1.1617681    300.93173   -738.31804   -9795.2581 
   20000    1.1430935    289.79878   -360.67916   -10048.681 
Loop time of 3.77085 on 128 procs for 5000 steps with 1745 atoms

Performance: 22.913 ns/day, 1.047 hours/ns, 1325.960 timesteps/s
99.2% CPU use with 128 MPI tasks x no OpenMP threads

MPI task timing breakdown:
Section |  min time  |  avg time  |  max time  |%varavg| %total
---------------------------------------------------------------
Pair    | 0.39224    | 0.72756    | 1.0539     |  18.3 | 19.29
Bond    | 0.00045658 | 0.00054918 | 0.00087397 |   0.0 |  0.01
Kspace  | 1.538      | 1.8687     | 2.1863     |  11.7 | 49.56
Neigh   | 0.022068   | 0.0227     | 0.023129   |   0.2 |  0.60
Comm    | 0.4138     | 0.47322    | 0.52844    |   4.1 | 12.55
Output  | 6.1205e-05 | 6.8268e-05 | 0.00010415 |   0.0 |  0.00
Modify  | 0.51461    | 0.57672    | 0.62684    |   4.0 | 15.29
Other   |            | 0.1013     |            |       |  2.69

Nlocal:    13.6328 ave 19 max 7 min
Histogram: 8 2 4 9 19 36 19 14 9 8
Nghost:    2633.4 ave 2698 max 2564 min
Histogram: 4 6 13 13 20 25 21 15 7 4
Neighs:    5176.46 ave 8638 max 2306 min
Histogram: 7 8 18 17 29 17 18 7 3 4

Total # of neighbors = 662587
Ave neighs/atom = 379.706
Ave special neighs/atom = 1.90831
Neighbor list builds = 45
Dangerous builds = 0
PPPM initialization ...
  extracting TIP4P info from pair style
  using 12-bit tables for long-range coulomb (../kspace.cpp:321)
  G vector (1/distance) = 0.311847
  grid = 25 25 25
  stencil order = 5
  estimated absolute RMS force accuracy = 0.00341539
  estimated relative force accuracy = 1.02854e-05
  using double precision FFTs
  3d grid and FFT values/proc = 2156 200
Setting up Verlet run ...
  Unit style    : real
  Current step  : 20000
  Time step     : 0.5
Per MPI rank memory allocation (min/avg/max) = 7.884 | 8.142 | 8.165 Mbytes
Step Density Temp Press TotEng 
   20000    1.1430935    289.79878   -765.41592   -10048.681 
   25000    1.1467476    297.97234   -211.62445   -10119.473 
Loop time of 3.59218 on 128 procs for 5000 steps with 1745 atoms

Performance: 60.131 ns/day, 0.399 hours/ns, 1391.911 timesteps/s
99.3% CPU use with 128 MPI tasks x no OpenMP threads

MPI task timing breakdown:
Section |  min time  |  avg time  |  max time  |%varavg| %total
---------------------------------------------------------------
Pair    | 0.43043    | 0.73261    | 1.0799     |  16.9 | 20.39
Bond    | 0.00045726 | 0.00054383 | 0.00087765 |   0.0 |  0.02
Kspace  | 1.4038     | 1.7692     | 2.0825     |  11.1 | 49.25
Neigh   | 0.022566   | 0.023615   | 0.0246     |   0.5 |  0.66
Comm    | 0.40248    | 0.4603     | 0.53164    |   4.3 | 12.81
Output  | 4.6156e-05 | 4.9197e-05 | 7.5752e-05 |   0.0 |  0.00
Modify  | 0.44073    | 0.5056     | 0.55272    |   4.0 | 14.07
Other   |            | 0.1003     |            |       |  2.79

Nlocal:    13.6328 ave 19 max 5 min
Histogram: 1 2 5 10 8 30 18 39 8 7
Nghost:    2615.2 ave 2658 max 2571 min
Histogram: 7 5 16 17 16 18 17 20 7 5
Neighs:    5175.99 ave 8862 max 2220 min
Histogram: 5 6 17 28 26 18 15 9 1 3

Total # of neighbors = 662527
Ave neighs/atom = 379.672
Ave special neighs/atom = 1.90831
Neighbor list builds = 111
Dangerous builds = 0
PPPM initialization ...
  extracting TIP4P info from pair style
  using 12-bit tables for long-range coulomb (../kspace.cpp:321)
  G vector (1/distance) = 0.311923
  grid = 25 25 25
  stencil order = 5
  estimated absolute RMS force accuracy = 0.00340461
  estimated relative force accuracy = 1.02529e-05
  using double precision FFTs
  3d grid and FFT values/proc = 2156 200
Setting up Verlet run ...
  Unit style    : real
  Current step  : 0
  Time step     : 2
Per MPI rank memory allocation (min/avg/max) = 8.134 | 8.15 | 8.165 Mbytes
Step Density Temp Press TotEng 
       0    1.1467476    297.97234    -847.6235   -10119.473 
  100000    1.1496094    300.16488   -64.090488   -10068.604 
  200000    1.1294138    311.79081   -552.78862   -10110.875 
  300000    1.1251992    310.42554    295.11349   -10099.205 
  400000    1.1418894    298.97684   -441.12175   -10150.656 
  500000    1.1441543     296.0079    481.69321   -10165.941 
  600000     1.121508    296.97625   -288.31352   -10176.144 
  700000    1.1199751    305.09442    -255.8664   -10126.678 
  800000    1.1347968    303.34572     660.8511   -10105.669 
  900000    1.1395447    304.54513   -371.89827   -10117.053 
 1000000    1.1240134    300.11925   -319.04061   -10128.023 
 1100000    1.1293256    291.14745   -221.10777   -10164.785 
 1200000    1.1401177    307.92343   -549.17351   -10126.761 
 1300000    1.1425396    278.44753   -556.06723   -10204.423 
 1400000    1.1275118    310.94187    93.758566   -10092.494 
 1500000    1.1385923    297.80594   -246.74467   -10103.863 
 1600000    1.1465089    293.04522    687.05311    -10111.24 
 1700000    1.1400471    298.55681   -292.86849   -10077.823 
 1800000    1.1308066    303.91767    147.01663   -10045.076 
 1900000    1.1458084    288.42486    693.90038    -10144.03 
 2000000     1.135971    296.27807   -176.93886   -10180.061 
 2100000    1.1474172    284.10479    161.93224   -10168.024 
 2200000     1.144289    299.31161   -725.92767   -10129.419 
 2300000    1.1375396    299.66884   -358.39806   -10146.943 
 2400000    1.1364298    308.70208   -376.18676   -10121.183 
 2500000    1.1196095    295.96836   -33.760908   -10120.224 
 2600000    1.1291421    322.50796   -267.60835   -10076.079 
 2700000    1.1518149    296.01243     1009.614   -10138.846 
 2800000     1.143121    299.24085   -642.17387    -10133.97 
 2900000    1.1699291    312.30499    560.59542   -10066.704 
 3000000    1.1307324    302.73918   -642.72225   -10123.048 
 3100000    1.1539022    304.26197   -588.40243   -10102.822 
 3200000    1.1293868    297.43117   -539.52705   -10066.256 
 3300000    1.1026948    285.10633   -936.09621   -10105.421 
 3400000    1.1252284    279.44843   -617.81142    -10164.88 
 3500000    1.1331465    295.23897   -654.85004   -10116.502 
 3600000    1.1173436    283.85276   -225.39973   -10136.267 
 3700000     1.150367     299.0514   -337.50291   -10094.304 
 3800000    1.1371592    299.67126    128.66759   -10085.391 
 3900000    1.1230183     294.0812   -1283.4668   -10065.946 
 4000000    1.1277356    305.45535    228.96106   -10099.125 
 4100000    1.1306048    306.14461   -756.75828   -10130.054 
 4200000      1.13864    303.97559   -739.96657   -10141.953 
 4300000      1.14198    302.20152    1228.4138   -10138.909 
 4400000    1.1522142    299.26345    491.22295   -10143.983 
 4500000    1.1311615     298.8133   -314.84289   -10070.614 
 4600000    1.1373511    287.43896   -1357.7387   -10211.744 
 4700000     1.145198    301.13159   -741.95201   -10084.354 
 4800000    1.1362389    304.48835    -506.1426   -10122.482 
 4900000    1.1349279    297.06548   -21.667234   -10098.086 
 5000000    1.1432463    302.62903   -19.637557   -10085.955 
Loop time of 4513.61 on 128 procs for 5000000 steps with 1745 atoms

Performance: 191.421 ns/day, 0.125 hours/ns, 1107.761 timesteps/s
99.1% CPU use with 128 MPI tasks x no OpenMP threads

MPI task timing breakdown:
Section |  min time  |  avg time  |  max time  |%varavg| %total
---------------------------------------------------------------
Pair    | 615.97     | 767.88     | 988.53     | 490.8 | 17.01
Bond    | 0.46905    | 0.5746     | 1.0098     |  13.7 |  0.01
Kspace  | 1839       | 2120.2     | 2290       | 309.0 | 46.97
Neigh   | 91.223     | 117.49     | 123.62     |  62.2 |  2.60
Comm    | 545.62     | 641.07     | 837.09     | 222.3 | 14.20
Output  | 0.0039454  | 0.0045625  | 0.0073737  |   0.6 |  0.00
Modify  | 677.75     | 756.14     | 826.29     | 137.5 | 16.75
Other   |            | 110.2      |            |       |  2.44

Nlocal:    13.6328 ave 19 max 8 min
Histogram: 8 5 9 16 20 24 20 12 7 7
Nghost:    2633.22 ave 2667 max 2590 min
Histogram: 2 4 7 23 16 19 19 22 9 7
Neighs:    5181.36 ave 8310 max 2622 min
Histogram: 7 11 18 24 19 15 12 14 4 4

Total # of neighbors = 663214
Ave neighs/atom = 380.065
Ave special neighs/atom = 1.90831
Neighbor list builds = 407830
Dangerous builds = 0
PPPM initialization ...
  extracting TIP4P info from pair style
  using 12-bit tables for long-range coulomb (../kspace.cpp:321)
  G vector (1/distance) = 0.31185
  grid = 25 25 25
  stencil order = 5
  estimated absolute RMS force accuracy = 0.00341494
  estimated relative force accuracy = 1.0284e-05
  using double precision FFTs
  3d grid and FFT values/proc = 2156 200
Setting up Verlet run ...
  Unit style    : real
  Current step  : 0
  Time step     : 2
Per MPI rank memory allocation (min/avg/max) = 8.134 | 8.15 | 8.165 Mbytes
Step Density Temp Press TotEng 
       0    1.1432463    302.62903    10.728303   -10085.955 
  100000    1.1424026    296.86834   -1171.1428   -10145.439 
  200000    1.1435623    299.87977    698.58377   -10136.152 
  300000    1.1369655    290.12023    458.27659   -10156.109 
  400000    1.1448445    303.10442   -45.542152    -10116.61 
  500000    1.1419663    297.48516    668.37424    -10128.94 
  600000     1.140182    297.00738   -586.88211   -10087.311 
  700000    1.1327459    298.03493   -643.10342   -10162.052 
  800000     1.121841    291.32508   -1235.8529   -10139.518 
  900000    1.1360851    297.94343    600.24138   -10163.992 
 1000000    1.1580719    303.38729    836.50763   -10096.946 
 1100000    1.1219017    295.10263    501.29556   -10066.103 
 1200000    1.1288247    307.60539   -715.74279   -10079.198 
 1300000    1.1154136    294.78316     209.9669   -10109.204 
 1400000    1.1464117    301.84393    703.69218   -10139.638 
 1500000    1.1336866    301.94776     668.6893    -10097.12 
 1600000     1.128476    312.97322   -1312.7366   -10083.272 
 1700000    1.1310663    301.31583   -202.18676   -10224.764 
 1800000    1.1327753    304.37351   -406.29589   -10089.071 
 1900000    1.1413847    293.44247   -306.55756    -10163.19 
 2000000    1.1300831     309.9472    672.47776   -10032.296 
 2100000    1.1283165    301.23725   -274.85304    -10151.71 
 2200000    1.1314692    290.26711   -1119.0902   -10149.671 
 2300000    1.1439063    291.12836     254.8255   -10118.753 
 2400000    1.1378865    293.33558   -574.75553   -10119.854 
 2500000    1.1212787    297.96418   -52.608128   -10073.195 
 2600000    1.1509894    311.01725    233.82167   -10084.825 
 2700000    1.1404387    296.55682    479.39868   -10124.806 
 2800000    1.1252388    309.63047   -715.90656   -10040.515 
 2900000    1.1316589    301.30376    -372.2498   -10071.997 
 3000000    1.1357599     303.8016   -557.49487   -10117.312 
 3100000    1.1202831    295.03823   -695.63364   -10167.457 
 3200000    1.1272298    295.30351    542.54485   -10199.439 
 3300000    1.1433006    290.38082    193.18178   -10161.214 
 3400000    1.1308929    301.10302   -724.11166   -10120.273 
 3500000     1.131184     300.7142   -225.43636   -10113.075 
 3600000     1.141123    299.43017    166.55032   -10143.603 
 3700000    1.1410434    307.37176    869.34003   -10135.607 
 3800000    1.1353762    287.99333    21.737194   -10110.393 
 3900000    1.1355995    304.89862   -448.53242   -10111.537 
 4000000     1.136717    296.95813    1139.9288   -10083.513 
 4100000    1.1520489    301.52027   -536.70126   -10171.793 
 4200000    1.1388317    305.58478    71.963114   -10075.304 
 4300000     1.120168    290.75498   -432.07735   -10116.939 
 4400000    1.1371889    303.06623   -162.50136   -10138.489 
 4500000    1.1479136    286.91775    34.156762   -10106.053 
 4600000    1.1468978    294.57538   -674.57121   -10118.224 
 4700000    1.1321914    293.52606   -10.945112    -10179.56 
 4800000    1.1401863    296.32903    1002.2275   -10127.081 
 4900000    1.1324028     302.3742   -1691.5367   -10103.802 
 5000000    1.1309968    287.94736   -220.26178   -10124.612 
Loop time of 5078.08 on 128 procs for 5000000 steps with 1745 atoms

Performance: 170.143 ns/day, 0.141 hours/ns, 984.625 timesteps/s
99.1% CPU use with 128 MPI tasks x no OpenMP threads

MPI task timing breakdown:
Section |  min time  |  avg time  |  max time  |%varavg| %total
---------------------------------------------------------------
Pair    | 620.95     | 769.81     | 993.77     | 488.1 | 15.16
Bond    | 0.47202    | 0.63392    | 1.3869     |  20.3 |  0.01
Kspace  | 1909.7     | 2293.6     | 2476.8     | 311.3 | 45.17
Neigh   | 91.232     | 136.13     | 144.62     |  98.1 |  2.68
Comm    | 598.13     | 734.14     | 1060.7     | 307.4 | 14.46
Output  | 2.6585     | 2.6594     | 2.6599     |   0.0 |  0.05
Modify  | 943.01     | 1031.7     | 1129       | 143.0 | 20.32
Other   |            | 109.3      |            |       |  2.15

Nlocal:    13.6328 ave 21 max 5 min
Histogram: 1 1 5 15 22 40 29 5 7 3
Nghost:    2608.58 ave 2640 max 2558 min
Histogram: 2 4 5 8 16 22 16 24 25 6
Neighs:    5123.84 ave 9432 max 2417 min
Histogram: 3 13 32 26 25 15 3 8 0 3

Total # of neighbors = 655852
Ave neighs/atom = 375.846
Ave special neighs/atom = 1.90831
Neighbor list builds = 407684
Dangerous builds = 0
Changing box ...
  orthogonal box = (0.2513 0.2513 0.2513) to (26.4796 26.5131 26.5131)
  orthogonal box = (0.2513 0.2513 0.2513) to (26.4796 26.4796 26.5131)
  orthogonal box = (0.2513 0.2513 0.2513) to (26.4796 26.4796 26.4796)
PPPM initialization ...
  extracting TIP4P info from pair style
  using 12-bit tables for long-range coulomb (../kspace.cpp:321)
  G vector (1/distance) = 0.311684
  grid = 25 25 25
  stencil order = 5
  estimated absolute RMS force accuracy = 0.00343854
  estimated relative force accuracy = 1.03551e-05
  using double precision FFTs
  3d grid and FFT values/proc = 2156 200
Setting up Verlet run ...
  Unit style    : real
  Current step  : 5000000
  Time step     : 0.001
Per MPI rank memory allocation (min/avg/max) = 8.134 | 8.15 | 8.165 Mbytes
Step Density Temp Press TotEng 
 5000000    1.1353323    287.94736   -15087.488   -10093.891 
 5005000    1.1353323    294.15413    321.97946   -10116.415 
Loop time of 3.22473 on 128 procs for 5000 steps with 1745 atoms

Performance: 0.134 ns/day, 179.152 hours/ns, 1550.516 timesteps/s
99.3% CPU use with 128 MPI tasks x no OpenMP threads

MPI task timing breakdown:
Section |  min time  |  avg time  |  max time  |%varavg| %total
---------------------------------------------------------------
Pair    | 0.20932    | 0.52137    | 1.0669     |  21.9 | 16.17
Bond    | 0.00033997 | 0.00043701 | 0.00079286 |   0.0 |  0.01
Kspace  | 1.3049     | 1.8414     | 2.1789     |  11.9 | 57.10
Neigh   | 0          | 0          | 0          |   0.0 |  0.00
Comm    | 0.41466    | 0.48304    | 0.54412    |   4.0 | 14.98
Output  | 5.3981e-05 | 6.0677e-05 | 8.0952e-05 |   0.0 |  0.00
Modify  | 0.27994    | 0.31334    | 0.33586    |   2.2 |  9.72
Other   |            | 0.0651     |            |       |  2.02

Nlocal:    13.6328 ave 22 max 4 min
Histogram: 1 0 5 20 18 41 27 9 6 1
Nghost:    2613.19 ave 2644 max 2563 min
Histogram: 4 4 6 6 14 21 17 22 28 6
Neighs:    5143.48 ave 9808 max 1974 min
Histogram: 1 7 30 36 22 19 5 5 1 2

Total # of neighbors = 658366
Ave neighs/atom = 377.287
Ave special neighs/atom = 1.90831
Neighbor list builds = 0
Dangerous builds = 0
PPPM initialization ...
  extracting TIP4P info from pair style
  using 12-bit tables for long-range coulomb (../kspace.cpp:321)
  G vector (1/distance) = 0.311684
  grid = 25 25 25
  stencil order = 5
  estimated absolute RMS force accuracy = 0.00343854
  estimated relative force accuracy = 1.03551e-05
  using double precision FFTs
  3d grid and FFT values/proc = 2156 200
Setting up Verlet run ...
  Unit style    : real
  Current step  : 5005000
  Time step     : 0.01
Per MPI rank memory allocation (min/avg/max) = 8.134 | 8.15 | 8.165 Mbytes
Step Density Temp Press TotEng 
 5005000    1.1353323    294.15413    321.93891   -10116.415 
 5010000    1.1353323    305.59138   -527.94623   -10112.543 
Loop time of 3.00108 on 128 procs for 5000 steps with 1745 atoms

Performance: 1.439 ns/day, 16.673 hours/ns, 1666.066 timesteps/s
99.4% CPU use with 128 MPI tasks x no OpenMP threads

MPI task timing breakdown:
Section |  min time  |  avg time  |  max time  |%varavg| %total
---------------------------------------------------------------
Pair    | 0.26356    | 0.52128    | 1.0454     |  21.4 | 17.37
Bond    | 0.00034201 | 0.00044034 | 0.00080789 |   0.0 |  0.01
Kspace  | 1.1684     | 1.6835     | 1.9412     |  12.1 | 56.09
Neigh   | 0.00042573 | 0.00044118 | 0.00045663 |   0.0 |  0.01
Comm    | 0.40012    | 0.44876    | 0.4951     |   3.2 | 14.95
Output  | 4.3721e-05 | 4.775e-05  | 6.6825e-05 |   0.0 |  0.00
Modify  | 0.26244    | 0.29559    | 0.31929    |   2.3 |  9.85
Other   |            | 0.05107    |            |       |  1.70

Nlocal:    13.6328 ave 21 max 6 min
Histogram: 2 0 9 16 28 24 37 6 4 2
Nghost:    2624.3 ave 2664 max 2568 min
Histogram: 3 3 10 9 16 23 16 26 17 5
Neighs:    5142.4 ave 9330 max 2044 min
Histogram: 1 8 16 43 24 13 15 4 2 2

Total # of neighbors = 658227
Ave neighs/atom = 377.207
Ave special neighs/atom = 1.90831
Neighbor list builds = 2
Dangerous builds = 0
PPPM initialization ...
  extracting TIP4P info from pair style
  using 12-bit tables for long-range coulomb (../kspace.cpp:321)
  G vector (1/distance) = 0.311684
  grid = 25 25 25
  stencil order = 5
  estimated absolute RMS force accuracy = 0.00343854
  estimated relative force accuracy = 1.03551e-05
  using double precision FFTs
  3d grid and FFT values/proc = 2156 200
Setting up Verlet run ...
  Unit style    : real
  Current step  : 5010000
  Time step     : 0.1
Per MPI rank memory allocation (min/avg/max) = 8.134 | 8.15 | 8.165 Mbytes
Step Density Temp Press TotEng 
 5010000    1.1353323    305.59138   -527.54778   -10112.543 
 5015000    1.1353323     297.9612    -745.8926   -10176.743 
Loop time of 2.8796 on 128 procs for 5000 steps with 1745 atoms

Performance: 15.002 ns/day, 1.600 hours/ns, 1736.349 timesteps/s
99.4% CPU use with 128 MPI tasks x no OpenMP threads

MPI task timing breakdown:
Section |  min time  |  avg time  |  max time  |%varavg| %total
---------------------------------------------------------------
Pair    | 0.24756    | 0.52834    | 0.91744    |  19.3 | 18.35
Bond    | 0.00033683 | 0.00043723 | 0.00078949 |   0.0 |  0.02
Kspace  | 1.1762     | 1.5604     | 1.8419     |  11.6 | 54.19
Neigh   | 0.0045767  | 0.0047196  | 0.0048235  |   0.1 |  0.16
Comm    | 0.39258    | 0.44322    | 0.48889    |   3.2 | 15.39
Output  | 4.5104e-05 | 4.9644e-05 | 7.521e-05  |   0.0 |  0.00
Modify  | 0.25938    | 0.29255    | 0.31512    |   2.2 | 10.16
Other   |            | 0.04991    |            |       |  1.73

Nlocal:    13.6328 ave 19 max 6 min
Histogram: 2 2 6 14 16 14 43 13 13 5
Nghost:    2613.79 ave 2662 max 2576 min
Histogram: 6 12 16 19 27 19 12 11 4 2
Neighs:    5145.3 ave 7856 max 1937 min
Histogram: 3 7 10 18 20 16 20 17 9 8

Total # of neighbors = 658598
Ave neighs/atom = 377.42
Ave special neighs/atom = 1.90831
Neighbor list builds = 21
Dangerous builds = 0
PPPM initialization ...
  extracting TIP4P info from pair style
  using 12-bit tables for long-range coulomb (../kspace.cpp:321)
  G vector (1/distance) = 0.311684
  grid = 25 25 25
  stencil order = 5
  estimated absolute RMS force accuracy = 0.00343854
  estimated relative force accuracy = 1.03551e-05
  using double precision FFTs
  3d grid and FFT values/proc = 2156 200
Setting up Verlet run ...
  Unit style    : real
  Current step  : 5015000
  Time step     : 0.2
Per MPI rank memory allocation (min/avg/max) = 8.134 | 8.15 | 8.165 Mbytes
Step Density Temp Press TotEng 
 5015000    1.1353323     297.9612   -746.04552   -10176.743 
 5020000    1.1353323    293.78369    74.163372   -10171.455 
Loop time of 2.948 on 128 procs for 5000 steps with 1745 atoms

Performance: 29.308 ns/day, 0.819 hours/ns, 1696.063 timesteps/s
99.4% CPU use with 128 MPI tasks x no OpenMP threads

MPI task timing breakdown:
Section |  min time  |  avg time  |  max time  |%varavg| %total
---------------------------------------------------------------
Pair    | 0.22508    | 0.53433    | 0.84245    |  19.2 | 18.13
Bond    | 0.0003439  | 0.00043775 | 0.0007964  |   0.0 |  0.01
Kspace  | 1.2766     | 1.5914     | 1.8798     |  11.4 | 53.98
Neigh   | 0.0090922  | 0.0092754  | 0.0094797  |   0.1 |  0.31
Comm    | 0.41527    | 0.46245    | 0.50718    |   3.2 | 15.69
Output  | 4.6968e-05 | 5.2884e-05 | 7.9709e-05 |   0.0 |  0.00
Modify  | 0.26791    | 0.29887    | 0.32226    |   2.3 | 10.14
Other   |            | 0.05123    |            |       |  1.74

Nlocal:    13.6328 ave 20 max 8 min
Histogram: 6 10 12 19 16 29 18 10 6 2
Nghost:    2619.79 ave 2664 max 2567 min
Histogram: 2 3 17 19 14 17 17 20 15 4
Neighs:    5147.62 ave 8281 max 2407 min
Histogram: 3 10 24 16 23 13 17 8 11 3

Total # of neighbors = 658896
Ave neighs/atom = 377.591
Ave special neighs/atom = 1.90831
Neighbor list builds = 43
Dangerous builds = 0
PPPM initialization ...
  extracting TIP4P info from pair style
  using 12-bit tables for long-range coulomb (../kspace.cpp:321)
  G vector (1/distance) = 0.311684
  grid = 25 25 25
  stencil order = 5
  estimated absolute RMS force accuracy = 0.00343854
  estimated relative force accuracy = 1.03551e-05
  using double precision FFTs
  3d grid and FFT values/proc = 2156 200
Setting up Verlet run ...
  Unit style    : real
  Current step  : 5020000
  Time step     : 0.5
Per MPI rank memory allocation (min/avg/max) = 8.134 | 8.15 | 8.165 Mbytes
Step Density Temp Press TotEng 
 5020000    1.1353323    293.78369    72.941338   -10171.455 
 5025000    1.1353323    308.53316    640.23676   -10113.061 
Loop time of 3.30155 on 128 procs for 5000 steps with 1745 atoms

Performance: 65.424 ns/day, 0.367 hours/ns, 1514.439 timesteps/s
99.2% CPU use with 128 MPI tasks x no OpenMP threads

MPI task timing breakdown:
Section |  min time  |  avg time  |  max time  |%varavg| %total
---------------------------------------------------------------
Pair    | 0.27228    | 0.54892    | 0.80299    |  17.4 | 16.63
Bond    | 0.00034734 | 0.00043907 | 0.0007965  |   0.0 |  0.01
Kspace  | 1.5717     | 1.8403     | 2.1095     |   9.8 | 55.74
Neigh   | 0.022565   | 0.023147   | 0.023751   |   0.2 |  0.70
Comm    | 0.44006    | 0.50088    | 0.55093    |   3.5 | 15.17
Output  | 5.8089e-05 | 6.5291e-05 | 0.00010562 |   0.0 |  0.00
Modify  | 0.31246    | 0.33559    | 0.35851    |   1.9 | 10.16
Other   |            | 0.05222    |            |       |  1.58

Nlocal:    13.6328 ave 20 max 7 min
Histogram: 2 6 8 24 17 26 28 10 5 2
Nghost:    2620.96 ave 2668 max 2572 min
Histogram: 3 4 16 12 24 23 28 9 6 3
Neighs:    5143.32 ave 8807 max 2742 min
Histogram: 10 14 20 28 15 16 11 9 4 1

Total # of neighbors = 658345
Ave neighs/atom = 377.275
Ave special neighs/atom = 1.90831
Neighbor list builds = 101
Dangerous builds = 0
PPPM initialization ...
  extracting TIP4P info from pair style
  using 12-bit tables for long-range coulomb (../kspace.cpp:321)
  G vector (1/distance) = 0.311684
  grid = 25 25 25
  stencil order = 5
  estimated absolute RMS force accuracy = 0.00343854
  estimated relative force accuracy = 1.03551e-05
  using double precision FFTs
  3d grid and FFT values/proc = 2156 200
Setting up Verlet run ...
  Unit style    : real
  Current step  : 5025000
  Time step     : 2
Per MPI rank memory allocation (min/avg/max) = 8.134 | 8.15 | 8.165 Mbytes
Step Density Temp Press TotEng 
 5025000    1.1353323    308.53316    620.57548   -10113.061 
 5100000    1.1353323    294.14842   -379.63751   -10100.984 
 5200000    1.1353323    292.70932    -479.2303   -10127.467 
 5300000    1.1353323    297.32249    155.20644   -10150.013 
 5400000    1.1353323    303.82397   -68.571444   -10159.438 
 5500000    1.1353323    294.56193   -559.16731   -10156.887 
 5600000    1.1353323    301.60128    143.19669   -10097.534 
 5700000    1.1353323    300.91958     -117.277   -10146.369 
 5800000    1.1353323    297.93474   -1507.4477   -10114.953 
 5900000    1.1353323    292.88991   -969.35137   -10152.047 
 6000000    1.1353323    285.40219   -431.26769    -10200.77 
 6100000    1.1353323     308.2981    829.18818   -10170.294 
 6200000    1.1353323    310.37558   -636.34102   -10063.118 
 6300000    1.1353323     303.4987    615.35843   -10094.955 
 6400000    1.1353323    301.81337   -470.61646   -10053.759 
 6500000    1.1353323    292.18021   -901.36952   -10139.724 
 6600000    1.1353323    301.10365    158.97494   -10139.471 
 6700000    1.1353323    289.43231   -548.81675   -10133.286 
 6800000    1.1353323    306.65903   -310.81208   -10026.998 
 6900000    1.1353323    296.10655    419.97719   -10144.417 
 7000000    1.1353323    312.74165    61.656709   -10018.044 
 7025000    1.1353323    302.32067   -210.28056   -10115.899 
Loop time of 1261.55 on 128 procs for 2000000 steps with 1745 atoms

Performance: 273.948 ns/day, 0.088 hours/ns, 1585.346 timesteps/s
99.3% CPU use with 128 MPI tasks x no OpenMP threads

MPI task timing breakdown:
Section |  min time  |  avg time  |  max time  |%varavg| %total
---------------------------------------------------------------
Pair    | 184.41     | 230.77     | 277.9      | 279.7 | 18.29
Bond    | 0.13724    | 0.17305    | 0.31598    |   5.7 |  0.01
Kspace  | 589.24     | 649.39     | 703.19     | 175.0 | 51.48
Neigh   | 35.525     | 36.335     | 37.046     |   5.8 |  2.88
Comm    | 180.25     | 198.83     | 218.58     |  61.6 | 15.76
Output  | 0.8605     | 0.86074    | 0.86131    |   0.0 |  0.07
Modify  | 110.84     | 123.97     | 133.16     |  44.1 |  9.83
Other   |            | 21.22      |            |       |  1.68

Nlocal:    13.6328 ave 20 max 8 min
Histogram: 6 6 10 18 24 38 13 6 1 6
Nghost:    2629.3 ave 2670 max 2588 min
Histogram: 2 5 13 20 24 30 10 11 9 4
Neighs:    5146.34 ave 8747 max 2715 min
Histogram: 5 14 25 24 20 19 10 6 3 2

Total # of neighbors = 658732
Ave neighs/atom = 377.497
Ave special neighs/atom = 1.90831
Neighbor list builds = 161560
Dangerous builds = 0
PPPM initialization ...
  extracting TIP4P info from pair style
  using 12-bit tables for long-range coulomb (../kspace.cpp:321)
  G vector (1/distance) = 0.311684
  grid = 25 25 25
  stencil order = 5
  estimated absolute RMS force accuracy = 0.00343854
  estimated relative force accuracy = 1.03551e-05
  using double precision FFTs
  3d grid and FFT values/proc = 2156 200
Setting up Verlet run ...
  Unit style    : real
  Current step  : 0
  Time step     : 2
Per MPI rank memory allocation (min/avg/max) = 13.6 | 13.63 | 13.66 Mbytes
Step Density Temp Press TotEng 
       0    1.1353323    302.32067   -209.90016   -10115.899 
  100000    1.1353323    307.14852    526.09365   -10102.814 
  200000    1.1353323    300.12259    556.75698   -10067.159 
  300000    1.1353323    283.67971    201.42655   -10214.118 
  400000    1.1353323    286.46628    474.53821   -10215.629 
  500000    1.1353323     296.1393    1252.1842   -10194.986 
  600000    1.1353323    289.19168   -178.88334   -10122.117 
  700000    1.1353323    305.78991     229.7776   -10171.006 
  800000    1.1353323    296.21938   -757.26199   -10159.363 
  900000    1.1353323    302.25558    470.03448   -10061.483 
 1000000    1.1353323    306.04604    650.28526   -10068.611 
 1100000    1.1353323    290.21744     106.1596   -10168.534 
 1200000    1.1353323     306.9832    156.05825   -10085.663 
 1300000    1.1353323    303.10849    857.42069   -10128.098 
 1400000    1.1353323    293.49184    209.25073   -10124.944 
 1500000    1.1353323    302.87767   -36.738969   -10115.142 
 1600000    1.1353323    288.47183   -242.59009   -10217.077 
 1700000    1.1353323    295.68275   -125.17724   -10118.011 
 1800000    1.1353323    301.14609   -398.99109   -10058.487 
 1900000    1.1353323    287.63044    208.93812   -10254.744 
 2000000    1.1353323    290.08547   -287.43049   -10151.587 
 2100000    1.1353323    289.73374    -179.8438   -10208.188 
 2200000    1.1353323    303.49695    405.37163   -10106.873 
 2300000    1.1353323    301.89137   -673.51721   -10048.191 
 2400000    1.1353323    297.62451   -67.190559   -10127.371 
 2500000    1.1353323    295.32797   -496.41526   -10056.625 
 2600000    1.1353323    297.05442    299.14246   -10146.812 
 2700000    1.1353323    293.90145   -407.51025   -10166.031 
 2800000    1.1353323    301.09997     346.1102   -10115.368 
 2900000    1.1353323    298.54863    -606.5268    -10115.59 
 3000000    1.1353323    299.58425    100.96883   -10138.169 
 3100000    1.1353323    293.90746   -433.05247   -10180.635 
 3200000    1.1353323    293.15501   -33.217886   -10119.813 
 3300000    1.1353323    302.00044    481.04415    -10072.52 
 3400000    1.1353323    305.03638    -145.6553   -10160.748 
 3500000    1.1353323    304.56761    1051.0586   -10102.593 
 3600000    1.1353323    292.82622   -716.00464   -10184.691 
 3700000    1.1353323    298.53236    354.03825    -10142.98 
 3800000    1.1353323    300.16635    -33.70553   -10159.824 
 3900000    1.1353323    298.56251    1.7906035   -10097.476 
 4000000    1.1353323    296.05289    759.52619   -10070.088 
 4100000    1.1353323    294.22025   -3.5888203   -10128.417 
 4200000    1.1353323    294.32928   -1136.3262   -10139.085 
 4300000    1.1353323    304.69008    850.28516   -10064.865 
 4400000    1.1353323    291.18275    57.706306   -10158.998 
 4500000    1.1353323    288.91176   -221.08486   -10104.099 
 4600000    1.1353323    282.68623    528.10098   -10218.508 
 4700000    1.1353323    301.31763   -654.44079   -10080.943 
 4800000    1.1353323    289.45818    678.55619   -10142.282 
 4900000    1.1353323    299.05246    891.40062   -10093.698 
 5000000    1.1353323    295.52766    256.66896   -10178.733 
 5100000    1.1353323     305.8119   -695.54514   -10173.621 
 5200000    1.1353323    289.43708    155.75546   -10083.348 
 5300000    1.1353323    286.73253   -207.57444   -10122.982 
 5400000    1.1353323    293.73451    -840.8179   -10191.233 
 5500000    1.1353323    311.45784   -889.06711   -10063.776 
 5600000    1.1353323    306.67402    -573.3017    -10123.03 
 5700000    1.1353323    294.95342    1009.3755   -10144.227 
 5800000    1.1353323    286.20972    611.23007    -10114.76 
 5900000    1.1353323    298.44642   -457.99156   -10146.775 
 6000000    1.1353323    300.30891   -55.277437    -10074.37 
 6100000    1.1353323    303.98546   -134.51151   -10009.701 
 6200000    1.1353323    298.37353   -656.88932   -10150.148 
 6300000    1.1353323    297.49542    -210.9085   -10209.524 
 6400000    1.1353323    300.96287    79.069199     -10193.6 
 6500000    1.1353323    291.52926    -6.866822    -10209.24 
 6600000    1.1353323    299.50889    -407.3873   -10100.008 
 6700000    1.1353323    310.38148    166.06415   -10088.189 
 6800000    1.1353323    293.28903   -288.43315   -10163.335 
 6900000    1.1353323     301.4027    229.21266   -10170.651 
 7000000    1.1353323    293.56198   -361.79087   -10124.642 
 7100000    1.1353323     312.2034    155.53105   -10022.427 
 7200000    1.1353323    297.80881    257.85189   -10128.682 
 7300000    1.1353323    293.69794   -116.05807   -10128.927 
 7400000    1.1353323    305.18515    423.92833   -10151.252 
 7500000    1.1353323    300.83123    181.89708   -10068.062 
 7600000    1.1353323    289.33945   -122.88571   -10180.926 
 7700000    1.1353323    290.46613     291.8233    -10078.32 
 7800000    1.1353323    303.82125    512.34009    -10086.61 
 7900000    1.1353323    302.35276    170.48941   -10112.228 
 8000000    1.1353323    305.50854    548.11727   -10086.585 
 8100000    1.1353323    308.80607   -83.566427   -10040.889 
 8200000    1.1353323    295.09713    538.27538   -10156.418 
 8300000    1.1353323    289.29003    405.28255   -10144.588 
 8400000    1.1353323    307.67493    473.27851   -10143.669 
 8500000    1.1353323    295.95124    86.873029     -10086.1 
 8600000    1.1353323    295.78445    116.14278   -10143.762 
 8700000    1.1353323    290.77736    365.96913   -10214.569 
 8800000    1.1353323     294.3329    873.55966   -10120.419 
 8900000    1.1353323    300.89872    310.47596   -10145.358 
 9000000    1.1353323    305.49014    1060.6319   -10159.413 
 9100000    1.1353323    288.74404   -324.45907   -10198.124 
 9200000    1.1353323    296.00282    72.477815   -10128.195 
 9300000    1.1353323    301.30722   -549.14719   -10064.007 
 9400000    1.1353323    303.92005   -295.62862   -10045.804 
 9500000    1.1353323    286.08606   -291.22119    -10215.38 
 9600000    1.1353323    296.35715   -182.81933    -10087.37 
 9700000    1.1353323    299.96915    521.24604   -10101.596 
 9800000    1.1353323    291.68913    182.14453   -10171.152 
 9900000    1.1353323    307.48989   -199.78646   -10080.709 
10000000    1.1353323    307.86814   -203.56908   -10061.909 
10100000    1.1353323    309.08084    78.054759   -10081.297 
10200000    1.1353323    283.62865    190.10948   -10136.678 
10300000    1.1353323    308.08346    -221.0857   -10116.098 
10400000    1.1353323    304.51851    224.43187   -10128.554 
10500000    1.1353323     300.3498    93.833651   -10122.135 
10600000    1.1353323    295.96984    266.18958   -10109.171 
10700000    1.1353323    301.51782    746.74552   -10113.572 
10800000    1.1353323    296.05176    577.75663   -10074.123 
10900000    1.1353323    291.64145    -1262.004   -10142.981 
11000000    1.1353323    300.76879    1274.3602   -10059.034 
11100000    1.1353323    297.89651   -669.55785   -10105.982 
11200000    1.1353323    304.23818    509.50191   -10134.755 
11300000    1.1353323    295.50742   -179.99399   -10156.253 
11400000    1.1353323    297.43743   -767.13337   -10191.661 
11500000    1.1353323    301.74358   -557.07541   -10137.448 
11600000    1.1353323    287.24738    610.33323   -10103.457 
11700000    1.1353323    292.73165   -162.91917   -10099.418 
11800000    1.1353323    298.37684    308.11963   -10130.006 
11900000    1.1353323    297.91644    239.93434    -10137.07 
12000000    1.1353323    296.61228   -978.50055    -10102.16 
12100000    1.1353323    310.88833   -904.29557   -10157.398 
12200000    1.1353323    295.84527   -474.56209   -10124.948 
12300000    1.1353323    305.36874   -346.25663   -10086.707 
12400000    1.1353323    311.06974    1284.2129    -10099.62 
12500000    1.1353323    287.07518    782.30569   -10203.002 
12600000    1.1353323    303.87915   -346.15273    -10140.29 
12700000    1.1353323    303.80993    258.32782   -10130.026 
12800000    1.1353323    304.95761   -182.51336    -10086.67 
12900000    1.1353323    306.70377    417.62902   -10060.442 
13000000    1.1353323    308.09933    475.75317   -10096.563 
13100000    1.1353323    290.00181   -1162.2963   -10099.586 
13200000    1.1353323    290.54008   -685.33795   -10166.763 
13300000    1.1353323    302.92884   -32.928104   -10145.338 
13400000    1.1353323    299.94476   -8.1878764   -10167.748 
13500000    1.1353323    287.54386   -309.48688   -10158.324 
13600000    1.1353323    288.81921    144.55484   -10103.483 
13700000    1.1353323    300.07452    386.87221    -10107.54 
13800000    1.1353323    303.05132   -387.93701   -10039.794 
13900000    1.1353323    288.40609    94.356807   -10173.964 
14000000    1.1353323    302.99542   -427.53029    -10138.06 
14100000    1.1353323    288.89396    153.00471   -10236.488 
14200000    1.1353323    296.21542    459.83544   -10152.142 
14300000    1.1353323    305.01455    595.49173   -10157.858 
14400000    1.1353323    295.29801   -517.38585   -10147.323 
14500000    1.1353323    299.66388   -469.80541   -10069.995 
14600000    1.1353323      311.214    782.06734   -10064.745 
14700000    1.1353323    297.65731   -504.20214   -10124.395 
14800000    1.1353323    302.93107   -223.65641   -10102.862 
14900000    1.1353323    302.05649    -127.2405   -10094.028 
15000000    1.1353323    287.02184    1173.4806   -10192.645 
15100000    1.1353323    298.67281    287.81706   -10141.903 
15200000    1.1353323    292.19282   -253.00782   -10124.179 
15300000    1.1353323    290.67768    217.78443   -10076.671 
15400000    1.1353323    319.62838   -142.78633   -10092.044 
15500000    1.1353323    302.13424    653.80775     -10120.8 
15600000    1.1353323    298.69366    1114.5093   -10091.358 
15700000    1.1353323    287.11146    893.16838   -10206.992 
15800000    1.1353323    293.97888    23.709483   -10180.899 
15900000    1.1353323    286.96663   -343.14388   -10183.211 
16000000    1.1353323    284.45082   -567.88995   -10182.433 
16100000    1.1353323    296.81441    484.48814    -10135.75 
16200000    1.1353323    307.42662   -663.20231   -10043.186 
16300000    1.1353323    294.29453    1049.8471   -10075.479 
16400000    1.1353323    288.35157    204.48846   -10184.798 
16500000    1.1353323    298.03716   -1135.5636   -10122.685 
16600000    1.1353323    308.10999    607.85998    -10131.69 
16700000    1.1353323    295.67166     432.0792   -10177.965 
16800000    1.1353323    299.06818    892.34371   -10116.438 
16900000    1.1353323    284.56557    15.480243   -10120.497 
17000000    1.1353323    292.80175   -1016.9958   -10180.364 
17100000    1.1353323    282.54242    -318.4266   -10184.948 
17200000    1.1353323    314.10955   -259.32546   -10108.249 
17300000    1.1353323    295.26533    761.96038   -10142.008 
17400000    1.1353323    286.85594    1203.7071   -10159.787 
17500000    1.1353323    279.70316    239.76165   -10247.709 
17600000    1.1353323    297.23322    -195.2208   -10131.892 
17700000    1.1353323    311.19545    545.42915   -10070.127 
17800000    1.1353323    294.12686    66.149896   -10174.955 
17900000    1.1353323    302.05772   -683.94087   -10146.685 
18000000    1.1353323    296.76325   -153.58687    -10142.45 
18100000    1.1353323    299.80769   -292.11054   -10125.303 
18200000    1.1353323    297.84322    304.08207   -10131.698 
18300000    1.1353323    306.01055   -347.74876   -10141.315 
18400000    1.1353323    299.69667   -473.91134   -10129.838 
18500000    1.1353323    280.62798    55.634193   -10152.665 
18600000    1.1353323    299.84639   -58.826033   -10131.788 
18700000    1.1353323    291.80566    931.22724    -10183.87 
18800000    1.1353323    289.49297   -279.69483   -10147.943 
18900000    1.1353323    288.70345    1095.1085   -10183.821 
19000000    1.1353323    297.04982   -1008.7855    -10089.42 
19100000    1.1353323    310.81807   -870.30734   -10056.324 
19200000    1.1353323    304.84333    623.84787   -10108.193 
19300000    1.1353323    300.38081    -174.8606   -10135.579 
19400000    1.1353323    301.09385   -25.727289   -10088.043 
19500000    1.1353323    301.16577   -56.133249   -10114.021 
19600000    1.1353323    297.97872   -368.44114   -10168.294 
19700000    1.1353323    297.14494    -199.3031    -10128.05 
19800000    1.1353323    300.74082    343.64893   -10082.305 
19900000    1.1353323    279.76192    96.502957   -10188.185 
20000000    1.1353323    302.21161   -36.819572   -10107.659 
20100000    1.1353323    309.46393   -998.62567   -10123.217 
20200000    1.1353323    300.10543   -67.912563   -10131.188 
20300000    1.1353323    294.04045    149.36383   -10114.875 
20400000    1.1353323    294.24207    535.40291   -10110.135 
20500000    1.1353323    292.09253    191.45728   -10182.769 
20600000    1.1353323     298.7364    349.94291   -10153.596 
20700000    1.1353323    295.70932   -569.17647   -10096.823 
20800000    1.1353323    292.94823     191.2228   -10110.603 
20900000    1.1353323    305.67416    225.06294    -10114.38 
21000000    1.1353323    294.69333   -135.63965   -10096.491 
21100000    1.1353323    300.76041    227.86679   -10060.387 
21200000    1.1353323    308.36222    215.65026   -10106.686 
21300000    1.1353323    293.85365   -16.239118   -10067.113 
21400000    1.1353323     301.6382    902.36639   -10146.996 
21500000    1.1353323    302.74889    69.092491   -10116.962 
21600000    1.1353323    306.97586   -86.737385   -10080.028 
21700000    1.1353323    298.23661    423.17108   -10100.387 
21800000    1.1353323    302.76723    314.46286   -10057.897 
21900000    1.1353323    291.87195   -790.95946   -10049.843 
22000000    1.1353323     298.5636    141.21374   -10167.355 
22100000    1.1353323    305.45641   -254.00287   -10101.982 
22200000    1.1353323    297.59381   -633.51796   -10121.369 
22300000    1.1353323    291.75281   -666.18661   -10066.068 
22400000    1.1353323    306.27911   -1122.4992   -10091.945 
22500000    1.1353323     300.7431     73.58483   -10113.668 
22600000    1.1353323    311.63204   -350.05999   -10068.203 
22700000    1.1353323    302.76388    264.15761   -10195.537 
22800000    1.1353323    286.73928   -808.92387   -10214.345 
22900000    1.1353323    295.54046   -386.92513    -10158.34 
23000000    1.1353323    285.25227   -566.49943    -10182.16 
23100000    1.1353323    285.14299   -783.59424   -10244.085 
23200000    1.1353323    304.40518    510.70848   -10162.561 
23300000    1.1353323    311.92822    116.68911   -10080.349 
23400000    1.1353323    298.11504   -203.12551   -10108.472 
23500000    1.1353323    298.54127   -1235.0991   -10131.425 
23600000    1.1353323    287.43605   -511.07638   -10117.381 
23700000    1.1353323    298.43279    489.82538   -10146.787 
23800000    1.1353323    301.88837    -1000.644   -10129.655 
23900000    1.1353323    287.92665   -312.26366   -10117.637 
24000000    1.1353323    303.91731   -590.44494   -10153.945 
24100000    1.1353323    295.74339   -28.982319    -10140.94 
24200000    1.1353323    287.09468     280.9268   -10118.904 
24300000    1.1353323    295.84404     450.8403    -10119.51 
24400000    1.1353323    304.79596    1484.6114   -10086.155 
24500000    1.1353323     302.3003   -236.28789    -10120.82 
24600000    1.1353323    312.89621   -543.68249   -10120.624 
24700000    1.1353323    304.30116   -888.87028   -10099.323 
24800000    1.1353323    304.40559    318.57534   -10151.983 
24900000    1.1353323     303.3165      -264.41    -10166.31 
25000000    1.1353323    295.29701    396.64704   -10161.584 
25100000    1.1353323    294.95795   -99.665966   -10185.511 
25200000    1.1353323    295.74939    743.34989   -10133.524 
25300000    1.1353323     297.8963   -848.85486   -10162.574 
25400000    1.1353323    290.38156   -697.10282   -10180.502 
25500000    1.1353323    307.95649   -375.74224   -10130.349 
25600000    1.1353323    306.13158    1299.2561   -10090.714 
25700000    1.1353323    297.27149     1328.186   -10119.491 
25800000    1.1353323    306.09086    365.76659   -10080.822 
25900000    1.1353323    297.24104   -13.974616   -10090.948 
26000000    1.1353323    278.82949    129.82712   -10217.963 
26100000    1.1353323    306.72308    316.75067   -10134.374 
26200000    1.1353323    300.85293    228.21545   -10090.484 
26300000    1.1353323    303.08078    669.15684   -10117.309 
26400000    1.1353323    283.86263    146.56891   -10216.918 
26500000    1.1353323    292.07911    414.26576   -10143.238 
26600000    1.1353323    295.96769    958.18351   -10194.007 
26700000    1.1353323    297.56536    177.13674   -10191.108 
26800000    1.1353323    302.33273    649.69283   -10073.366 
26900000    1.1353323    300.29042    149.80918   -10136.021 
27000000    1.1353323    286.86614   -5.5618428   -10180.926 
27100000    1.1353323    303.45764   -395.67496   -10110.206 
27200000    1.1353323    294.20422   -145.67876   -10104.412 
27300000    1.1353323    299.05616   -557.68865   -10144.631 
27400000    1.1353323    303.89106   -1072.3042   -10051.618 
27500000    1.1353323    298.67851     713.2044   -10143.874 
27600000    1.1353323    309.12398    407.76152   -10113.853 
27700000    1.1353323    307.73475    771.82662   -10194.899 
27800000    1.1353323    286.34128    790.73503   -10224.122 
27900000    1.1353323    307.18146   -358.17674   -10112.986 
28000000    1.1353323    308.43356   -26.713482   -10104.757 
28100000    1.1353323    311.86816   -31.415284   -10101.579 
28200000    1.1353323    301.20178    84.507801   -9970.4709 
28300000    1.1353323    297.50232    -677.8617   -10119.524 
28400000    1.1353323    289.02452   -89.328295   -10203.632 
28500000    1.1353323    290.11543    743.98933   -10198.229 
28600000    1.1353323    283.19478   -572.14328    -10167.48 
28700000    1.1353323    303.95695   -541.22771   -10144.462 
28800000    1.1353323    306.50317   -542.17249   -10173.038 
28900000    1.1353323    291.18788     23.46909   -10131.708 
29000000    1.1353323    296.97888   -251.18967   -10093.541 
29100000    1.1353323    287.68013    655.28428   -10170.027 
29200000    1.1353323    298.44001   -123.73812   -10185.282 
29300000    1.1353323    295.92137   -903.83311    -10138.56 
29400000    1.1353323    295.81139     226.8474   -10099.053 
29500000    1.1353323    297.15454    471.04028   -10135.563 
29600000    1.1353323    309.64469   -385.41907   -10148.314 
29700000    1.1353323    300.47481    1074.9809   -10173.738 
29800000    1.1353323    301.00554   -795.37924   -10198.386 
29900000    1.1353323    303.94906    1114.3972   -10032.559 
30000000    1.1353323    288.73859     67.40253   -10169.975 
30100000    1.1353323    291.05886    -774.4142    -10140.55 
30200000    1.1353323    299.59207    495.20172   -10110.056 
30300000    1.1353323    311.73972    104.08799   -10018.334 
30400000    1.1353323    293.92919   -195.57198   -10110.875 
30500000    1.1353323    289.34263    308.32357   -10152.165 
30600000    1.1353323    293.29136    345.23181    -10139.92 
30700000    1.1353323    303.97607   -142.46474   -10071.973 
30800000    1.1353323     285.2934    111.49223   -10182.378 
30900000    1.1353323    302.62705   -444.43415   -10120.704 
31000000    1.1353323     304.2094   -337.69985     -10170.4 
31100000    1.1353323    293.29322   -901.41005   -10115.206 
31200000    1.1353323    293.28478   -317.57614   -10187.582 
31300000    1.1353323    294.68888   -485.65534   -10138.813 
31400000    1.1353323    291.42642    258.52064   -10148.154 
31500000    1.1353323    302.41099   -1398.6205   -10172.023 
31600000    1.1353323    286.04363   -111.86988   -10207.098 
31700000    1.1353323    305.82781    74.005225   -9989.2578 
31800000    1.1353323    293.04919    8.9170307   -10139.864 
31900000    1.1353323     300.7608    166.91473   -10063.964 
32000000    1.1353323    297.73416   -53.205152   -10117.002 
32100000    1.1353323    294.82325   -217.89127   -10159.431 
32200000    1.1353323     294.6709    67.966288   -10186.527 
32300000    1.1353323    294.81416     398.3866   -10184.683 
32400000    1.1353323    296.98554    189.49651     -10117.7 
32500000    1.1353323    293.00289   -224.96014   -10145.639 
32600000    1.1353323    305.64238   -1301.3904   -10133.791 
32700000    1.1353323    293.76421   -352.86173    -10143.68 
32800000    1.1353323    288.81353   -313.16059   -10198.213 
32900000    1.1353323    294.34938    318.87691   -10113.446 
33000000    1.1353323    308.45993   -392.92337   -10062.623 
33100000    1.1353323    301.05433    -765.9677   -10127.587 
33200000    1.1353323    299.30296    152.62641   -10146.773 
33300000    1.1353323    307.98334   -251.61984   -10098.224 
33400000    1.1353323    303.23903     137.6432   -10094.711 
33500000    1.1353323    297.32755   -159.99035   -10171.715 
33600000    1.1353323    288.26641   -1017.5841   -10159.305 
33700000    1.1353323    297.20744    -408.6704   -10168.257 
33800000    1.1353323    302.88053     465.0337   -10098.898 
33900000    1.1353323    297.59962   -538.58622   -10177.913 
34000000    1.1353323    296.58912   -252.13146   -10118.389 
34100000    1.1353323    304.91318    472.10717   -10082.723 
34200000    1.1353323    296.32439   -263.30076   -10200.783 
34300000    1.1353323    291.18147   -180.66935   -10121.686 
34400000    1.1353323    300.82469     308.3647   -10123.036 
34500000    1.1353323     299.3747   -1010.7657   -10104.391 
34600000    1.1353323    301.27403    937.38317   -10046.692 
34700000    1.1353323      292.824   -370.43089   -10149.171 
34800000    1.1353323    304.09534    140.23908   -10118.847 
34900000    1.1353323    299.85847   -286.87337   -10116.955 
35000000    1.1353323    307.03064    -203.8583   -10091.174 
35100000    1.1353323    306.41589    292.74684   -10084.667 
35200000    1.1353323    290.60147   -135.94551   -10168.559 
35300000    1.1353323    294.08786    330.49233   -10080.684 
35400000    1.1353323    286.63727   -37.751272   -10175.418 
35500000    1.1353323     288.3975    337.10082   -10131.631 
35600000    1.1353323    280.44094     542.9682    -10195.36 
35700000    1.1353323    299.61062   -396.46798   -10157.494 
35800000    1.1353323    307.94085    409.89928   -10187.352 
35900000    1.1353323    302.59622   -478.04714   -10008.662 
36000000    1.1353323    290.05236   -654.84212   -10109.404 
36100000    1.1353323    299.10678    487.86609   -10064.906 
36200000    1.1353323    303.19534   -321.10844   -10123.172 
36300000    1.1353323    286.29627    670.57792     -10125.6 
36400000    1.1353323    291.33559    599.89923   -10097.273 
36500000    1.1353323    295.84359   -11.714236   -10100.696 
36600000    1.1353323     297.2467   -886.69087   -10092.251 
36700000    1.1353323    305.91174   -341.09587   -10098.076 
36800000    1.1353323     298.5486   -351.10195    -10143.68 
36900000    1.1353323    294.10471   -363.84524   -10066.996 
37000000    1.1353323     304.3114   -755.44826   -10109.249 
37100000    1.1353323    301.01083    237.37479   -10125.015 
37200000    1.1353323    292.19709    254.44036   -10233.711 
37300000    1.1353323    296.50522    600.95186   -10086.497 
37400000    1.1353323    296.11634    434.40653   -10096.891 
37500000    1.1353323    291.62992   -206.42149    -10145.58 
37600000    1.1353323    297.97526   -530.26163   -10107.825 
37700000    1.1353323    288.22315   -348.32189   -10170.561 
37800000    1.1353323    305.70154    142.45157   -10153.344 
37900000    1.1353323    298.33038   -402.64953   -10160.356 
38000000    1.1353323    297.18646     661.6686   -10087.003 
38100000    1.1353323    295.17605   -39.399713   -10140.315 
38200000    1.1353323    307.24337    706.88542   -10076.819 
38300000    1.1353323    281.67612   -585.15699   -10147.908 
38400000    1.1353323    294.36852   -99.039575   -10151.626 
38500000    1.1353323    287.37193   -988.29902   -10164.369 
38600000    1.1353323    303.60026   -657.33685    -10127.33 
38700000    1.1353323    304.68066    190.37273   -10143.424 
38800000    1.1353323    306.83149   -281.64536   -10073.322 
38900000    1.1353323    296.01513   -32.535518    -10129.11 
39000000    1.1353323    299.07976    509.53249     -10100.2 
39100000    1.1353323    301.20112    -485.7669   -10059.991 
39200000    1.1353323       301.98   -572.31931   -10124.175 
39300000    1.1353323     290.5252   -370.07456   -10174.276 
39400000    1.1353323    298.12987    450.83218   -10174.912 
39500000    1.1353323     302.1752   -543.88525   -10160.153 
39600000    1.1353323    301.03264    439.27066   -10083.651 
39700000    1.1353323    304.12828   -209.08321   -10081.096 
39800000    1.1353323     303.2283    508.01482   -10088.116 
39900000    1.1353323    300.08812    706.22751   -10087.424 
40000000    1.1353323    302.63495    -569.8316   -10088.528 
40100000    1.1353323    294.13895    647.54565   -10158.793 
40200000    1.1353323    286.55505    23.491023   -10107.328 
40300000    1.1353323    293.77746   -610.25592   -10186.875 
40400000    1.1353323    309.71156     925.4549   -10104.693 
40500000    1.1353323    307.09362    -505.3689   -10089.558 
40600000    1.1353323    286.55344    249.38199   -10182.109 
40700000    1.1353323    295.54836   -168.11179   -10136.905 
40800000    1.1353323    288.21832   -690.02976   -10184.859 
40900000    1.1353323    295.34129    607.18867   -10140.466 
41000000    1.1353323    292.41429   -929.53666     -10172.7 
41100000    1.1353323    289.86904    449.94987   -10179.537 
41200000    1.1353323    287.15965    697.21551   -10081.218 
41300000    1.1353323    303.83335   -70.646923   -10130.968 
41400000    1.1353323    304.70672   -669.86828   -10096.388 
41500000    1.1353323    296.19041     -743.117   -10148.473 
41600000    1.1353323    296.45129    -524.7022   -10132.126 
41700000    1.1353323    296.65546    275.43662   -10192.178 
41800000    1.1353323    307.75449   -303.20479   -10055.505 
41900000    1.1353323    293.76349    527.05107    -10167.39 
42000000    1.1353323    300.17048   -383.66339   -10127.974 
42100000    1.1353323    294.38126   -775.26261   -10156.512 
42200000    1.1353323    298.36875   -391.88415    -10140.92 
42300000    1.1353323    298.88526   -251.85079   -10139.324 
42400000    1.1353323    292.38972    791.22118   -10175.958 
42500000    1.1353323    295.69211    44.058476   -10173.906 
42600000    1.1353323    297.99504   -738.29736   -10145.726 
42700000    1.1353323    306.30554    134.04189   -10083.012 
42800000    1.1353323    299.73039   -216.47727   -10100.835 
42900000    1.1353323     297.0942   -472.77982   -10071.446 
43000000    1.1353323    300.77039    190.28463   -10100.965 
43100000    1.1353323    299.32118  -0.65511454     -10149.7 
43200000    1.1353323    296.02067   -374.04065   -10045.838 
43300000    1.1353323    295.75946    252.10051   -10126.949 
43400000    1.1353323    291.97361   -108.29102   -10157.485 
43500000    1.1353323    301.17171   -42.566335   -10088.648 
43600000    1.1353323    303.90443   -164.34425    -10121.12 
43700000    1.1353323    293.22347   -837.63307   -10166.804 
43800000    1.1353323    305.44197    663.81611    -10109.62 
43900000    1.1353323    299.90938    91.180198   -10081.805 
44000000    1.1353323    303.40462    734.20397   -10154.398 
44100000    1.1353323    292.26578    915.58527    -10156.61 
44200000    1.1353323    298.42929   -147.27056   -10122.102 
44300000    1.1353323    294.93779    696.73725   -10077.765 
44400000    1.1353323    306.25097    546.29958   -10052.832 
44500000    1.1353323    305.51438    851.11575   -10122.906 
44600000    1.1353323     295.0413    79.455066   -10172.682 
44700000    1.1353323    296.23846    202.93477   -10148.018 
44800000    1.1353323    306.65741    374.19979   -10039.436 
44900000    1.1353323    302.46109   -41.912855   -10132.037 
45000000    1.1353323    305.87852    1250.3565   -10121.208 
45100000    1.1353323    294.57546    1180.5454   -10086.991 
45200000    1.1353323    292.84091   -682.06616   -10140.779 
45300000    1.1353323    290.72962   -40.392253   -10171.135 
45400000    1.1353323    305.78216    891.77085   -10136.644 
45500000    1.1353323    301.65519    466.21354   -10127.633 
45600000    1.1353323    291.42678    51.336421   -10181.803 
45700000    1.1353323    301.02496   -44.259213   -10145.886 
45800000    1.1353323    303.40273    238.71085   -10116.592 
45900000    1.1353323    286.03863   -119.04174   -10157.136 
46000000    1.1353323    290.40762    134.67001   -10175.418 
46100000    1.1353323    287.05659    25.061264   -10232.542 
46200000    1.1353323    305.32232   -390.81441   -10159.032 
46300000    1.1353323    296.34906   -256.25138   -10116.343 
46400000    1.1353323    294.77135    211.89845   -10092.204 
46500000    1.1353323    295.54833   -20.037556    -10158.16 
46600000    1.1353323    297.27659   -481.52711   -10061.348 
46700000    1.1353323      301.021    131.40919   -10057.206 
46800000    1.1353323    286.44262    810.39762   -10194.692 
46900000    1.1353323    317.41158   -345.38742   -10073.987 
47000000    1.1353323    298.55895    14.581851   -10198.236 
47100000    1.1353323    299.18475    356.21677   -10184.438 
47200000    1.1353323    291.54042   -559.99015   -10129.344 
47300000    1.1353323    300.54766   -630.37393   -10085.479 
47400000    1.1353323    310.21015    36.902438   -10070.321 
47500000    1.1353323    304.85138   -669.00548   -10098.419 
47600000    1.1353323    305.13215    824.72452   -10058.196 
47700000    1.1353323    292.44339    61.069789   -10108.308 
47800000    1.1353323    299.23244   -726.97794   -10155.249 
47900000    1.1353323    300.44943     246.4504   -10111.663 
48000000    1.1353323    305.78271    -1135.585   -10114.955 
48100000    1.1353323    295.85103    192.14757   -10107.237 
48200000    1.1353323    300.30891    -987.3374   -10143.356 
48300000    1.1353323    306.07007   -1493.3282   -10099.285 
48400000    1.1353323    304.95482    302.76914   -10109.474 
48500000    1.1353323    302.80285     56.10043   -10100.009 
48600000    1.1353323    298.74584     125.6906   -10126.696 
48700000    1.1353323    306.49335    417.68822   -10066.389 
48800000    1.1353323    292.37174   -728.32645   -10113.024 
48900000    1.1353323    299.10394   -533.44727   -10158.138 
49000000    1.1353323    281.02697   -152.70096    -10211.74 
49100000    1.1353323    311.56707    593.15392   -10065.873 
49200000    1.1353323    308.30618   -770.19401   -10052.624 
49300000    1.1353323    302.91004    346.91699   -10096.635 
49400000    1.1353323    294.47126   -304.47094   -10162.444 
49500000    1.1353323    301.33623    532.20063   -10088.842 
49600000    1.1353323    302.18792    786.26346   -10110.098 
49700000    1.1353323    286.12212    206.04673   -10159.464 
49800000    1.1353323    297.15661    1139.2578   -10172.468 
49900000    1.1353323     300.7079   -379.05331   -10112.054 
50000000    1.1353323    302.29078   -899.78028   -10138.857 
50100000    1.1353323    295.12218    522.35041   -10166.873 
50200000    1.1353323    297.48028    -1077.773   -10203.465 
50300000    1.1353323     300.1042    27.131915   -10145.071 
50400000    1.1353323    299.21527    21.439109   -10129.377 
50500000    1.1353323    307.16721    216.48401    -10109.21 
50600000    1.1353323    299.51876    550.50512   -10130.706 
50700000    1.1353323    290.44792     451.8487   -10130.262 
50800000    1.1353323    295.91572    -30.26164   -10158.909 
50900000    1.1353323    285.25158    41.767848   -10181.254 
51000000    1.1353323    300.46355    193.02785   -10021.631 
51100000    1.1353323     304.9634    168.59123   -10076.598 
51200000    1.1353323    302.53195   -592.89004    -10027.71 
51300000    1.1353323    294.04446   -36.848719    -10109.56 
51400000    1.1353323     297.1036    136.05479   -10105.805 
51500000    1.1353323    296.21353    321.64772   -10127.574 
51600000    1.1353323    291.43172   -289.28537   -10158.749 
51700000    1.1353323    308.84218    964.55296    -10088.17 
51800000    1.1353323    286.62129   -120.65911       -10205 
51900000    1.1353323    290.48941   -1270.9227   -10199.263 
52000000    1.1353323    298.17013     291.2834   -10074.739 
52100000    1.1353323     295.4275   -126.35795   -10132.053 
52200000    1.1353323    296.61888    330.89841   -10116.252 
52300000    1.1353323    304.80406    69.058861   -10081.918 
52400000    1.1353323    303.59866   -262.37215   -10097.597 
52500000    1.1353323    291.81759    193.62266   -10101.597 
52600000    1.1353323    289.34993    134.38009   -10116.094 
52700000    1.1353323    297.90228   -167.26672   -10191.521 
52800000    1.1353323    295.56996   -1056.3671   -10157.104 
52900000    1.1353323    285.57444     482.7514   -10178.266 
53000000    1.1353323      298.584    301.56312     -10146.2 
53100000    1.1353323    307.91866   -226.72442   -10154.682 
53200000    1.1353323    300.90059    1121.0189   -10109.704 
53300000    1.1353323    293.52387    628.27457   -10182.446 
53400000    1.1353323    289.45347    86.759181   -10194.761 
53500000    1.1353323     293.8905   -640.81299   -10125.463 
53600000    1.1353323    306.41429   -494.67328   -10043.475 
53700000    1.1353323    292.52147    767.09517   -10207.819 
53800000    1.1353323     298.9958    1360.7125   -10132.417 
53900000    1.1353323    286.06271     367.4345    -10152.81 
54000000    1.1353323    287.83508    973.83378   -10182.265 
54100000    1.1353323    301.04996    605.75428   -10121.036 
54200000    1.1353323    307.38831   -721.08219   -10065.359 
54300000    1.1353323    294.09881   -504.31051   -10090.313 
54400000    1.1353323    303.47089   -387.67371   -10121.677 
54500000    1.1353323     290.3832   -79.809237   -10116.463 
54600000    1.1353323    289.84201   -277.38741    -10307.19 
54700000    1.1353323    304.35414   -387.60527   -10176.376 
54800000    1.1353323    301.92802   -96.832297    -10099.03 
54900000    1.1353323    304.71123    139.78857   -10084.074 
55000000    1.1353323    294.92723    565.01053   -10190.288 
55100000    1.1353323    303.65964    172.75988   -10140.217 
55200000    1.1353323    298.30628    862.30403   -10036.549 
55300000    1.1353323    297.50968    8.0813766   -10155.865 
55400000    1.1353323    296.79216    280.20513   -10099.452 
55500000    1.1353323    311.16839    1199.4224   -10035.892 
55600000    1.1353323    300.49123     431.3944   -10060.433 
55700000    1.1353323    294.66587   -500.42031   -10175.703 
55800000    1.1353323    295.52867    -75.13672   -10153.585 
55900000    1.1353323    308.02483   -740.62547   -10078.013 
56000000    1.1353323    302.63953    493.21836   -10069.668 
56100000    1.1353323    300.59344    50.417421   -10072.431 
56200000    1.1353323    289.60397   -433.38627   -10207.615 
56300000    1.1353323    290.94156   -42.302062    -10176.24 
56400000    1.1353323    305.07579    132.81745   -10140.122 
56500000    1.1353323    302.91071   -314.32386   -10104.183 
56600000    1.1353323    291.23722   -161.32324   -10167.874 
56700000    1.1353323    302.16914   -48.386483   -10117.909 
56800000    1.1353323    300.11714  -0.89014211   -10155.683 
56900000    1.1353323    295.95812    -460.5941   -10116.785 
57000000    1.1353323    295.94204   -183.50795   -10139.119 
57100000    1.1353323    298.09578    607.36836   -10142.094 
57200000    1.1353323    294.47876    200.36284   -10168.306 
57300000    1.1353323    285.96826    127.81859   -10188.833 
57400000    1.1353323    288.77303    292.40029   -10127.208 
57500000    1.1353323    288.45909    -457.4737   -10169.464 
57600000    1.1353323    301.85451    451.77512   -10101.708 
57700000    1.1353323    299.83625    191.55298   -10151.325 
57800000    1.1353323     306.5733    27.305318   -10141.826 
57900000    1.1353323    294.36623    -624.5697   -10130.518 
58000000    1.1353323    297.63965   -374.90735   -10154.121 
58100000    1.1353323    295.75509   -112.30873   -10069.758 
58200000    1.1353323    312.09845    757.28409   -10075.363 
58300000    1.1353323    300.96303     157.4788   -10154.506 
58400000    1.1353323    292.15359   -827.94072   -10159.469 
58500000    1.1353323    292.27843   -396.94145   -10162.051 
58600000    1.1353323    299.30448    998.12264   -10134.297 
58700000    1.1353323    302.32339   -146.97699   -10184.472 
58800000    1.1353323    292.30398    102.38945   -10121.748 
58900000    1.1353323     306.6967    533.22953    -10151.69 
59000000    1.1353323    300.67517    525.24153   -10097.032 
59100000    1.1353323    301.73017    378.40946    -10084.93 
59200000    1.1353323    289.53179   -252.44376   -10150.323 
59300000    1.1353323    298.56936   -952.45825   -10063.604 
59400000    1.1353323    306.77286    -520.5778   -10142.041 
59500000    1.1353323    297.45888   -477.34739   -10119.588 
59600000    1.1353323    296.87208    315.23747   -10176.348 
59700000    1.1353323    312.27989   -1243.7011   -10088.925 
59800000    1.1353323    295.85324   -795.26962   -10116.614 
59900000    1.1353323    312.13425   -218.65669       -10065 
60000000    1.1353323    305.73218    472.76876   -10172.668 
60100000    1.1353323    303.31536   -321.17548   -10106.214 
60200000    1.1353323     304.6625   -634.46784   -10145.454 
60300000    1.1353323    287.55783   -1371.2157   -10187.717 
60400000    1.1353323    307.88279    1040.8821   -10092.195 
60500000    1.1353323    288.31828    449.07569   -10179.914 
60600000    1.1353323    292.27666    447.78279   -10136.311 
60700000    1.1353323    290.42873   -915.23334   -10136.009 
60800000    1.1353323    308.28189    134.42675   -10140.128 
60900000    1.1353323    305.64706    455.42999   -10131.836 
61000000    1.1353323    287.57668   -158.74079   -10152.524 
61100000    1.1353323    298.45336    45.375067   -10158.587 
61200000    1.1353323    299.72825    168.90386   -10112.992 
61300000    1.1353323    290.19689   -418.87571   -10150.734 
61400000    1.1353323    289.54231    -618.5979    -10154.78 
61500000    1.1353323    294.15034    307.62384   -10191.866 
61600000    1.1353323    297.13911   -421.67252   -10159.464 
61700000    1.1353323    291.52064   -179.82295    -10099.51 
61800000    1.1353323    301.97552    348.85505   -10113.996 
61900000    1.1353323    303.17799    218.57936   -10102.477 
62000000    1.1353323     282.7427    710.30381   -10134.613 
62100000    1.1353323    298.20054    56.323403   -10064.545 
62200000    1.1353323    299.21236   -235.41794   -10063.424 
62300000    1.1353323     284.4394   -729.18423   -10187.682 
62400000    1.1353323    297.83681    473.60433   -10053.636 
62500000    1.1353323    303.22304    1218.1149   -10154.199 
62600000    1.1353323    285.53925    18.558054   -10227.503 
62700000    1.1353323    315.73814    517.07744    -10131.88 
62800000    1.1353323    312.15302    939.64528   -10026.941 
62900000    1.1353323     287.8325   -114.06025   -10111.848 
63000000    1.1353323    300.46546   -377.68692   -10099.963 
63100000    1.1353323    300.57883   -259.99644   -10131.576 
63200000    1.1353323    288.22801   -61.461814   -10154.492 
63300000    1.1353323    292.14844   -448.84531   -10066.392 
63400000    1.1353323    297.88129   -246.72687   -10118.741 
63500000    1.1353323    294.53956    -1482.783   -10195.037 
63600000    1.1353323    314.81631    70.100767   -10029.866 
63700000    1.1353323    300.39561   -505.62789   -10135.132 
63800000    1.1353323    303.73583   -313.82511   -10076.419 
63900000    1.1353323    295.28234   -249.33129   -10113.531 
64000000    1.1353323    299.30087    814.62223   -10129.321 
64100000    1.1353323    297.59502    51.886197   -10155.134 
64200000    1.1353323    301.24162   -400.63698   -10060.143 
64300000    1.1353323    306.14585   -225.36673   -10144.487 
64400000    1.1353323    305.37156   -417.98285    -10079.15 
64500000    1.1353323    288.11488   -542.71931   -10120.607 
64600000    1.1353323    303.68257   -48.053908   -10110.249 
64700000    1.1353323     301.7491    1194.9057   -10062.567 
64800000    1.1353323    294.53259    354.85838    -10138.52 
64900000    1.1353323    295.51209    296.18111   -10138.004 
65000000    1.1353323    289.41432   -637.74268    -10192.38 
65100000    1.1353323    293.76182   -401.41633   -10074.052 
65200000    1.1353323    286.42632    326.10659   -10188.194 
65300000    1.1353323    300.23538   -202.15311   -10140.059 
65400000    1.1353323    295.68046    383.87695   -10204.987 
65500000    1.1353323    301.76648     -175.353   -10145.889 
65600000    1.1353323    304.78904    309.88092   -10074.264 
65700000    1.1353323    302.02725    40.253463    -10089.08 
65800000    1.1353323    302.21742   -651.00084   -10098.634 
65900000    1.1353323    292.80842    408.69235   -10132.664 
66000000    1.1353323    291.36009   -271.50297   -10093.523 
66100000    1.1353323     290.0532     250.9474   -10148.974 
66200000    1.1353323    304.03266   -574.81737   -10084.158 
66300000    1.1353323    296.94963   -434.66431   -10167.759 
66400000    1.1353323    290.85964    -375.3488   -10134.154 
66500000    1.1353323    301.54266    561.43683    -10126.77 
66600000    1.1353323    304.90639   -634.87235   -10129.387 
66700000    1.1353323    302.48386    274.93573   -10175.553 
66800000    1.1353323    300.05572   -434.30784   -10154.057 
66900000    1.1353323    315.05068    393.49453   -10069.958 
67000000    1.1353323    294.21699   -623.14974   -10115.688 
67100000    1.1353323    298.82201   -288.07094   -10192.337 
67200000    1.1353323    309.85108   -302.14084   -10071.058 
67300000    1.1353323    308.28124    685.81096   -10077.157 
67400000    1.1353323    306.79402    491.83838   -10125.531 
67500000    1.1353323    304.89965    101.85167   -10150.641 
67600000    1.1353323    297.40915    291.98637   -10178.535 
67700000    1.1353323    295.34956    831.39544   -10138.403 
67800000    1.1353323     300.6021   -943.10902   -10118.155 
67900000    1.1353323    305.22483    849.53017   -10021.379 
68000000    1.1353323    303.96801    248.27535    -10115.02 
68100000    1.1353323    297.63134    17.302458   -10132.417 
68200000    1.1353323    299.27281    462.57834    -10070.55 
68300000    1.1353323    301.99052    279.17103   -10076.485 
68400000    1.1353323    295.65701   -780.64945   -10096.896 
68500000    1.1353323    296.88469   -99.592909   -10179.975 
68600000    1.1353323    293.44595   -896.55859   -10106.063 
68700000    1.1353323    285.60722   -240.36935   -10189.458 
68800000    1.1353323    299.59605    1075.2176    -10126.53 
68900000    1.1353323    293.45738    883.78368   -10191.578 
69000000    1.1353323    296.00962     377.7365   -10163.803 
69100000    1.1353323    310.20194    883.81242   -10022.496 
69200000    1.1353323    302.21029     -427.228   -10130.921 
69300000    1.1353323    296.17146    493.56276   -10095.617 
69400000    1.1353323    293.16154    84.924456   -10113.079 
69500000    1.1353323    302.35429   -426.83682   -10066.529 
69600000    1.1353323    296.72059    397.21242   -10171.831 
69700000    1.1353323     309.5789   -49.253774   -10022.136 
69800000    1.1353323    301.52734     196.8057   -10102.662 
69900000    1.1353323     289.4504   -77.127503   -10185.575 
70000000    1.1353323    286.87031   -29.238827   -10172.327 
70100000    1.1353323    296.51687    404.61373    -10070.48 
70200000    1.1353323    303.77944    108.21316   -10109.077 
70300000    1.1353323    292.82706    310.14685   -10156.377 
70400000    1.1353323    311.59651   -32.924269   -10047.512 
70500000    1.1353323    284.40225   -369.90273   -10131.314 
70600000    1.1353323    294.21885    915.40987   -10094.115 
70700000    1.1353323    308.09833   -734.18613     -10065.5 
70800000    1.1353323     282.8761    465.43629   -10152.458 
70900000    1.1353323    304.48033    9.6455761   -10107.887 
71000000    1.1353323    295.37156   -570.73753   -10109.184 
71100000    1.1353323    295.43512   -773.30534   -10144.483 
71200000    1.1353323    302.61563    274.41019   -10125.244 
71300000    1.1353323    285.05177    918.19547   -10232.274 
71400000    1.1353323     299.1208    898.51157   -10055.489 
71500000    1.1353323    299.93257    -486.6459   -10187.042 
71600000    1.1353323    299.58573   -84.973656   -10117.893 
71700000    1.1353323    293.05236    70.466782    -10142.34 
71800000    1.1353323     302.3665    150.98507   -10151.744 
71900000    1.1353323    302.79083   -902.80494   -10091.841 
72000000    1.1353323    312.00579    740.96263   -10067.178 
72100000    1.1353323    283.47541    160.49381   -10171.397 
72200000    1.1353323    295.86483    30.676934   -10159.246 
72300000    1.1353323    294.44463   -563.85873   -10135.439 
72400000    1.1353323     288.1723    562.64785    -10122.57 
72500000    1.1353323    294.04305    47.821571   -10059.889 
72600000    1.1353323    292.87378   -185.94379   -10166.979 
72700000    1.1353323    308.06349   -353.73281   -10054.497 
72800000    1.1353323    292.35281    47.881755   -10140.317 
72900000    1.1353323    292.87041     -839.963   -10162.723 
73000000    1.1353323    299.11731   -439.07059   -10138.748 
73100000    1.1353323    292.22123    155.76555   -10185.579 
73200000    1.1353323    302.23974    66.497411   -10099.923 
73300000    1.1353323    303.29383   -293.30542    -10061.67 
73400000    1.1353323    286.43753     289.6289   -10129.977 
73500000    1.1353323    294.77004    137.00911   -10118.487 
73600000    1.1353323      300.912   -515.07369   -10124.581 
73700000    1.1353323     289.4706   -298.63128   -10127.288 
73800000    1.1353323    291.23622   -134.38523   -10107.214 
73900000    1.1353323    300.54941    216.44072   -10115.311 
74000000    1.1353323    306.65973    251.31741   -10055.492 
74100000    1.1353323    291.05117    337.40332   -10105.026 
74200000    1.1353323    300.68787   -1446.8342   -10148.268 
74300000    1.1353323    297.70688   -1246.8924   -10071.639 
74400000    1.1353323    304.91358    944.97272   -10172.507 
74500000    1.1353323     296.3712   -690.02945   -10143.979 
74600000    1.1353323    292.27541    267.89249   -10129.325 
74700000    1.1353323    302.71407    764.26834   -10110.906 
74800000    1.1353323    300.26051   -11.749369   -10079.421 
74900000    1.1353323    299.13324    702.76124   -10094.609 
75000000    1.1353323    293.89884    611.67195   -10183.112 
75100000    1.1353323    300.94163    232.35371   -10072.988 
75200000    1.1353323    291.36968    201.90693   -10170.142 
75300000    1.1353323    289.59757    1216.4679   -10117.021 
75400000    1.1353323    290.46806   -696.70101   -10124.744 
75500000    1.1353323     287.5583   -498.85868   -10198.439 
75600000    1.1353323    297.08103   -224.62972   -10094.162 
75700000    1.1353323     305.2926    483.30914   -10089.812 
75800000    1.1353323    303.48699    748.51932   -10111.843 
75900000    1.1353323    295.22823    930.16039   -10098.472 
76000000    1.1353323    304.84728   -75.958521   -10074.896 
76100000    1.1353323    297.78268     200.6757    -10115.09 
76200000    1.1353323    306.73055   -170.75138   -10158.589 
76300000    1.1353323    294.15233    21.261409   -10165.193 
76400000    1.1353323    308.99431     295.2823   -10145.471 
76500000    1.1353323    299.94367    337.27507   -10190.694 
76600000    1.1353323    301.99049    -666.8338   -10169.658 
76700000    1.1353323    302.85126   -137.06259   -10177.194 
76800000    1.1353323    299.37847   -351.08025   -10101.671 
76900000    1.1353323    301.18385    342.12875    -10082.45 
77000000    1.1353323    301.34053   -389.07403     -10122.5 
77100000    1.1353323    289.49892     253.9884   -10136.581 
77200000    1.1353323    301.89573    374.31357   -10067.646 
77300000    1.1353323    297.84177   -158.48241   -10104.177 
77400000    1.1353323    293.10054   -369.47367   -10109.411 
77500000    1.1353323    309.73074   -289.62078   -10157.988 
77600000    1.1353323    294.42096   -441.95316   -10156.206 
77700000    1.1353323    304.85961    163.09343   -10115.523 
77800000    1.1353323    297.90876   -141.19813   -10176.284 
77900000    1.1353323    300.75957    589.15983   -10140.038 
78000000    1.1353323    305.78554     27.30884   -10116.367 
78100000    1.1353323    296.39985    858.55243   -10147.496 
78200000    1.1353323     286.7903   -662.10851   -10154.979 
78300000    1.1353323    294.56462   -531.70797   -10111.142 
78400000    1.1353323    292.26605   -700.76436   -10161.887 
78500000    1.1353323    303.21419   -832.48825   -10126.138 
78600000    1.1353323    300.65313    130.62275    -10082.25 
78700000    1.1353323    293.75079   -827.57594   -10132.454 
78800000    1.1353323    291.20112   -969.09074   -10109.492 
78900000    1.1353323    305.41026   0.32793567   -10168.487 
79000000    1.1353323    312.09187   -106.59733   -10100.266 
79100000    1.1353323    297.63606    62.808804   -10162.517 
79200000    1.1353323      296.058    1.8278672    -10092.21 
79300000    1.1353323     305.2876    169.98423   -10106.092 
79400000    1.1353323    296.82433   -436.60997   -10146.362 
79500000    1.1353323    303.39617    961.54899   -10099.904 
79600000    1.1353323     292.9204   -103.71575   -10195.549 
79700000    1.1353323    307.57378   -869.12053   -10093.428 
79800000    1.1353323    287.53103     338.7768    -10166.07 
79900000    1.1353323    314.36517    246.19476   -10072.104 
80000000    1.1353323    295.88762   -468.78766   -10095.519 
80100000    1.1353323    293.80063    68.738556   -10099.388 
80200000    1.1353323    308.66564   -177.92989   -10078.252 
80300000    1.1353323    303.77246    322.59463   -10108.702 
80400000    1.1353323    298.98645   -62.077662   -10049.518 
80500000    1.1353323    305.52328    406.60783   -10089.588 
80600000    1.1353323    301.82397   -353.36881   -10138.212 
80700000    1.1353323    296.91466   -515.04899   -10113.705 
80800000    1.1353323    286.84464    863.01367   -10188.868 
80900000    1.1353323    308.04973   -954.17713   -10071.529 
81000000    1.1353323    322.00851    401.33891   -9996.2832 
81100000    1.1353323    299.78554   -333.81414   -10145.158 
81200000    1.1353323    298.25912    740.32713   -10043.879 
81300000    1.1353323     296.6948     1118.259   -10112.532 
81400000    1.1353323     295.1899   -8.8284154   -10134.364 
81500000    1.1353323    297.27082    776.49609   -10117.168 
81600000    1.1353323    298.40941    258.52653   -10089.855 
81700000    1.1353323    294.44849   -774.70643   -10155.737 
81800000    1.1353323    287.17547   -814.21294   -10156.328 
81900000    1.1353323    302.21922   -601.79304   -10127.462 
82000000    1.1353323    313.86043   -528.95029   -10058.849 
82100000    1.1353323     298.7662    -168.4346    -10014.82 
82200000    1.1353323    280.91011   -23.333435   -10171.725 
82300000    1.1353323    289.43133    16.156204   -10172.525 
82400000    1.1353323    295.00487    598.34157   -10185.534 
82500000    1.1353323    301.75876    491.16164   -10136.152 
82600000    1.1353323     298.3835   -772.78157   -10148.315 
82700000    1.1353323    291.05675    200.78479   -10123.691 
82800000    1.1353323    298.93051   -580.95894   -10076.899 
82900000    1.1353323    305.02944    862.42719   -10203.445 
83000000    1.1353323      296.732   -767.19823   -10141.141 
83100000    1.1353323    301.81585    687.57047    -10107.02 
83200000    1.1353323    310.25958   -453.69468   -10137.117 
83300000    1.1353323    300.46749   -629.22004   -10067.612 
83400000    1.1353323    294.57996    293.15373   -10130.503 
83500000    1.1353323    289.24399   -104.73368   -10130.092 
83600000    1.1353323    294.23883   -58.223863   -10157.626 
83700000    1.1353323    298.67287   -15.471945   -10175.254 
83800000    1.1353323    312.58401    600.70777   -10082.566 
83900000    1.1353323    293.92813    259.35982   -10134.685 
84000000    1.1353323    295.80868    455.65705   -10136.933 
84100000    1.1353323    303.92974    102.71018   -10063.648 
84200000    1.1353323    289.55051    150.24249   -10128.851 
84300000    1.1353323    304.14829    155.46428   -10111.512 
84400000    1.1353323    291.91436   -355.05153   -10172.663 
84500000    1.1353323    298.78631    105.25539   -10205.292 
84600000    1.1353323    307.36279    42.112607   -10225.333 
84700000    1.1353323    306.05429   -112.98138   -10065.531 
84800000    1.1353323    306.05773    515.78595   -10025.723 
84900000    1.1353323    310.61231    696.55192   -10109.443 
85000000    1.1353323    291.21661    198.25621   -10237.274 
85100000    1.1353323    311.49723    332.48423    -10014.22 
85200000    1.1353323    299.75782    142.98379   -10142.486 
85300000    1.1353323    296.73743    420.52235   -10146.485 
85400000    1.1353323    293.12978    277.00169   -10167.196 
85500000    1.1353323    302.65056   -652.99419   -10061.931 
85600000    1.1353323    298.74866    340.56231   -10129.539 
85700000    1.1353323    300.91957   -265.65581   -10093.078 
85800000    1.1353323    308.65279   -11.613254   -10021.976 
85900000    1.1353323    296.91139   -217.89388   -10193.318 
86000000    1.1353323     299.0072   -559.01737   -10143.789 
86100000    1.1353323    309.18903    754.88713   -10029.411 
86200000    1.1353323    293.25307   -1007.1136   -10125.447 
86300000    1.1353323    301.92828    17.025365   -10034.295 
86400000    1.1353323    288.40661   -208.73238   -10170.575 
86500000    1.1353323    297.71746   -49.924308     -10167.7 
86600000    1.1353323    288.30345   -109.23033   -10183.678 
86700000    1.1353323    292.25426    1449.9873   -10153.806 
86800000    1.1353323     301.2309   -512.86514   -10070.822 
86900000    1.1353323    298.25236    463.53736   -10184.113 
87000000    1.1353323    288.23912    324.35891   -10139.146 
87100000    1.1353323     305.6173    433.57045   -10164.183 
87200000    1.1353323    284.76011   -380.13568    -10199.54 
87300000    1.1353323    296.44727    697.43573   -10116.485 
87400000    1.1353323    297.90482   -388.07472   -10127.942 
87500000    1.1353323    301.95733    1337.4706   -10168.591 
87600000    1.1353323    293.51905   -80.046714   -10126.185 
87700000    1.1353323    294.96598    601.19359   -10151.869 
87800000    1.1353323    315.30525    690.79383    -10046.57 
87900000    1.1353323    296.62462   -332.12846    -10145.09 
88000000    1.1353323    284.85622   -306.10994   -10157.244 
88100000    1.1353323    306.22132   -37.345703   -10084.495 
88200000    1.1353323    287.66806    397.25876   -10097.967 
88300000    1.1353323    290.61294    25.309264   -10134.979 
88400000    1.1353323    290.50042   -231.18048   -10148.066 
88500000    1.1353323    302.84998   0.54658088   -10096.548 
88600000    1.1353323    295.83509   -492.46317   -10181.973 
88700000    1.1353323     298.4739   -253.70169   -10133.691 
88800000    1.1353323    303.84659   -316.85752   -10085.442 
88900000    1.1353323    302.56655    165.90376   -10161.709 
89000000    1.1353323    299.40814    683.17272   -10091.812 
89100000    1.1353323    283.54051     354.1995   -10209.243 
89200000    1.1353323    287.39157   -736.08946   -10080.637 
89300000    1.1353323    295.98163    864.29026   -10136.151 
89400000    1.1353323    295.79154   -445.04552   -10107.074 
89500000    1.1353323    295.47591   -429.12848    -10124.56 
89600000    1.1353323    297.96147    121.79949   -10068.041 
89700000    1.1353323     286.6192    173.46336   -10171.425 
89800000    1.1353323    294.26773    34.881996   -10089.007 
89900000    1.1353323    291.83045   -468.03234   -10152.158 
90000000    1.1353323    289.22492   -195.57571   -10166.929 
90100000    1.1353323    311.82422    -452.8225   -10042.157 
90200000    1.1353323    293.40019    607.04872   -10166.852 
90300000    1.1353323     291.6952   -33.234823   -10163.823 
90400000    1.1353323    294.56156   -279.15808   -10162.998 
90500000    1.1353323    302.17814    469.30509   -10118.378 
90600000    1.1353323    296.84141    256.53738   -10164.576 
90700000    1.1353323    290.15311    824.29714   -10163.976 
90800000    1.1353323    297.22562    249.86073   -10100.913 
90900000    1.1353323    293.04046   -278.64296   -10063.965 
91000000    1.1353323    308.78183   -43.798615   -10076.781 
91100000    1.1353323    292.32471   -620.84051   -10161.404 
91200000    1.1353323    310.36154   -197.74794   -10110.081 
91300000    1.1353323    297.42466    416.82862   -10043.201 
91400000    1.1353323     302.0476   -568.14903     -10150.7 
91500000    1.1353323    303.05122    998.95941   -10076.029 
91600000    1.1353323    312.44964    717.84998   -10036.142 
91700000    1.1353323    309.57488    1002.0704   -10122.847 
91800000    1.1353323    300.46051    468.01715   -10183.572 
91900000    1.1353323    305.88792    433.33884   -10057.035 
92000000    1.1353323    295.22889   -1088.1383    -10109.14 
92100000    1.1353323    303.31547   -37.395006   -10120.107 
92200000    1.1353323    287.96822    140.03372   -10144.305 
92300000    1.1353323    282.00222   -900.26429   -10204.155 
92400000    1.1353323    296.96096     846.6736   -10169.962 
92500000    1.1353323    292.45416    754.27531   -10217.535 
92600000    1.1353323    309.88102     -844.628   -10079.112 
92700000    1.1353323     288.1713   -195.70864   -10232.427 
92800000    1.1353323    297.22444   -616.32221   -10122.489 
92900000    1.1353323      296.867    273.64406   -10140.718 
93000000    1.1353323    307.42917    1013.0143   -10091.703 
93100000    1.1353323    298.54135   -168.97379   -10125.494 
93200000    1.1353323    295.46283    112.78556   -10216.388 
93300000    1.1353323    296.31446    64.885392    -10115.34 
93400000    1.1353323    290.39731   -271.09751   -10186.064 
93500000    1.1353323    291.12926    276.77575   -10118.469 
93600000    1.1353323    293.88183    460.19964   -10126.567 
93700000    1.1353323    301.81942     808.4211   -10134.368 
93800000    1.1353323    306.47674   -586.70918   -10054.895 
93900000    1.1353323      304.246   -98.072873   -10153.424 
94000000    1.1353323    290.85718   -374.69248   -10232.624 
94100000    1.1353323    291.56504    318.52016   -10218.333 
94200000    1.1353323    305.71767    309.03885   -10098.647 
94300000    1.1353323    291.67594    258.51003   -10148.504 
94400000    1.1353323    303.35519    28.749376    -10087.04 
94500000    1.1353323    299.97418      111.402   -10138.585 
94600000    1.1353323    302.91344    77.192339     -10094.7 
94700000    1.1353323    295.04478   -727.10915   -10093.382 
94800000    1.1353323    315.49559   -647.38256   -10079.327 
94900000    1.1353323    291.70182    109.30545   -10214.535 
95000000    1.1353323     294.0725    76.703168   -10133.728 
95100000    1.1353323    299.68294   -128.54279   -10126.746 
95200000    1.1353323    298.55652    65.567904   -10130.571 
95300000    1.1353323    304.47821    478.45411   -10083.412 
95400000    1.1353323    306.14557    1106.7861    -10059.24 
95500000    1.1353323    295.44752    652.37452   -10207.449 
95600000    1.1353323    292.89213     91.55085   -10153.808 
95700000    1.1353323    299.03738    193.57585   -10071.904 
95800000    1.1353323    295.54879    45.949111   -10172.604 
95900000    1.1353323    294.52854    244.71875   -10145.317 
96000000    1.1353323    295.98177   -377.27469   -10172.549 
96100000    1.1353323     305.0723   -146.80133   -10131.559 
96200000    1.1353323    290.85134   -633.66521    -10126.66 
96300000    1.1353323    308.46692    797.04044   -10097.812 
96400000    1.1353323    294.90667   -26.435591   -10158.798 
96500000    1.1353323    288.85705   -1215.1558   -10114.572 
96600000    1.1353323    292.33821    414.22581   -10150.074 
96700000    1.1353323    292.67205    -32.86266   -10041.214 
96800000    1.1353323    302.53044    448.80395   -10103.395 
96900000    1.1353323    308.72939     324.3281   -10047.957 
97000000    1.1353323    299.70857    480.34115   -10105.956 
97100000    1.1353323    300.94893   -177.42527   -10130.835 
97200000    1.1353323    297.32806   -1048.0713   -10093.817 
97300000    1.1353323    288.92117   -1085.8523   -10185.232 
97400000    1.1353323    297.78333    104.06611   -10150.684 
97500000    1.1353323    291.73902   -717.13069   -10187.535 
97600000    1.1353323    286.93573   -759.90882    -10197.98 
97700000    1.1353323    304.96356    234.63216   -10148.565 
97800000    1.1353323    291.89141   -336.88858   -10142.125 
97900000    1.1353323    302.82328      151.223   -10148.699 
98000000    1.1353323     295.1126   -383.66322   -10087.036 
98100000    1.1353323    295.78047    226.06703   -10156.003 
98200000    1.1353323    296.85546    198.81853   -10069.779 
98300000    1.1353323    309.57572    115.92088   -10127.078 
98400000    1.1353323    313.34588   -420.59455   -10085.624 
98500000    1.1353323    305.03944    82.036832   -10107.027 
98600000    1.1353323    301.08611     420.0661    -10116.65 
98700000    1.1353323    295.66144   -325.65434   -10103.076 
98800000    1.1353323    296.47951    136.06776   -10160.247 
98900000    1.1353323    302.67793    501.68637    -10103.03 
99000000    1.1353323    288.33739   -167.56969   -10119.493 
99100000    1.1353323    293.53237   -467.48649   -10090.177 
99200000    1.1353323    301.50914   -457.51503   -10126.564 
99300000    1.1353323    307.49129   -533.41931   -10100.368 
99400000    1.1353323     295.2064   -655.49424   -10214.624 
99500000    1.1353323    291.04866    462.28666   -10160.053 
99600000    1.1353323    288.82753    662.13641   -10143.309 
99700000    1.1353323    296.40374   -1111.0633   -10149.717 
99800000    1.1353323     301.7241    -217.0844   -10192.726 
99900000    1.1353323    292.87191   -911.58458   -10149.089 
100000000    1.1353323    293.15088   -385.61951   -10121.702 
Loop time of 96303.3 on 128 procs for 100000000 steps with 1745 atoms

Performance: 179.433 ns/day, 0.134 hours/ns, 1038.386 timesteps/s
99.2% CPU use with 128 MPI tasks x no OpenMP threads

MPI task timing breakdown:
Section |  min time  |  avg time  |  max time  |%varavg| %total
---------------------------------------------------------------
Pair    | 14662      | 18107      | 23169      |2300.0 | 18.80
Bond    | 220.84     | 302.31     | 532.9      | 364.8 |  0.31
Kspace  | 44463      | 49368      | 53025      |1431.9 | 51.26
Neigh   | 1850.9     | 1888.2     | 1917.1     |  36.0 |  1.96
Comm    | 8979.5     | 9881.9     | 10893      | 438.0 | 10.26
Output  | 40.667     | 48.547     | 50.052     |  22.3 |  0.05
Modify  | 15086      | 15550      | 15947      | 169.1 | 16.15
Other   |            | 1157       |            |       |  1.20

Nlocal:    13.6328 ave 19 max 8 min
Histogram: 6 14 4 17 16 21 23 13 5 9
Nghost:    2617.86 ave 2662 max 2571 min
Histogram: 6 10 8 17 21 23 11 13 13 6
Neighs:    5144.18 ave 8220 max 2450 min
Histogram: 5 8 11 28 23 22 13 10 4 4

Total # of neighbors = 658455
Ave neighs/atom = 377.338
Ave special neighs/atom = 1.90831
Neighbor list builds = 8076655
Dangerous builds = 0

JOB STATISTICS
==============
Job ID: 2423471
Cluster: snellius
User/Group: jellel/jellel
State: RUNNING
Nodes: 1
Cores per node: 128
CPU Utilized: 157-13:11:24
CPU Efficiency: 99.18% of 158-20:26:40 core-walltime
Job Wall-clock time: 1-05:47:05
Memory Utilized: 17.76 GB (estimated maximum)
Memory Efficiency: 13.88% of 128.00 GB (128.00 GB/node)
WARNING: Efficiency statistics may be misleading for RUNNING jobs.
