3152
Atoms. Timestep: 0
O 23.7344 23.877 15.7098
H 23.7333 22.9875 16.0636
H 24.6286 24.0087 15.3945
O 32.4319 4.81805 32.1667
H 1.27077 4.98009 31.6712
H 32.7305 4.65969 1.09835
O 15.5724 15.9448 11.2731
H 15.9653 15.8123 12.1358
H 15.1331 16.7929 11.3371
O 12.3668 7.44393 3.05561
H 11.9464 7.40459 2.19658
H 12.3031 8.36395 3.31203
O 18.8062 8.16438 1.77789
H 19.0454 8.28444 2.69693
H 18.0926 8.78551 1.63248
O 29.7766 28.8068 2.43978
H 29.6581 28.1153 1.78861
H 30.7258 28.8917 2.52956
O 29.7885 28.5192 15.1198
H 29.9441 28.7973 16.0224
H 30.0293 29.2789 14.5897
O 28.9414 14.7114 1.0975
H 28.6559 14.4407 1.97008
H 28.4379 15.5049 0.915697
O 15.9895 25.8452 15.026
H 16.0223 26.4321 15.7814
H 15.066 25.6063 14.9476
O 2.96192 15.975 12.5041
H 3.87233 15.6845 12.4495
H 2.60405 15.8083 11.6322
O 3.24667 30.2188 7.58337
H 2.60962 29.5282 7.76609
H 3.11137 30.432 6.66006
O 15.0184 2.4173 13.7693
H 14.5462 1.60436 13.5895
H 14.3775 3.10877 13.6039
O 23.2619 31.3484 29.3273
H 23.9427 31.3785 28.6551
H 22.9966 30.4293 29.3592
O 15.0607 6.36868 9.84661
H 14.4476 6.79027 10.4488
H 15.8477 6.21969 10.3707
O 30.0807 13.5917 30.1036
H 30.6514 13.9306 29.4139
H 30.5295 13.8168 30.9186
O 20.9605 29.4467 21.7478
H 20.0837 29.4376 22.1316
H 21.4929 28.931 22.3535
O 14.2048 29.4109 5.4395
H 13.5334 29.7983 4.87793
H 13.7369 29.1628 6.23681
O 32.0175 14.0061 32.1412
H 32.6353 14.7366 32.1718
H 32.4901 13.3112 31.6828
O 24.9879 1.08064 8.88863
H 24.0729 1.03588 9.16608
H 25.0357 32.4688 8.12544
O 27.8299 13.3502 3.40911
H 28.0734 12.5767 2.90051
H 26.9128 13.2054 3.6418
O 25.2659 16.5964 22.8345
H 25.4517 16.5277 23.771
H 26.0124 16.1737 22.41
O 19.9636 29.3672 7.20372
H 19.7115 28.4819 7.46624
H 19.6214 29.9301 7.89816
O 9.50378 6.26865 5.8583
H 8.96268 5.97365 6.5907
H 9.10865 5.86002 5.08815
O 15.8104 12.4098 1.848
H 14.8915 12.5074 1.59801
H 15.7829 11.9579 2.69139
O 0.914569 6.47181 21.5294
H 31.9527 6.71453 21.5429
H 1.29681 7.02136 20.8452
O 31.6564 9.57091 29.5462
H 30.7578 9.43331 29.8458
H 31.6158 9.4423 28.5986
O 16.417 31.4688 25.0221
H 15.5094 31.1832 24.9173
H 16.3761 32.1602 25.6829
O 1.77823 22.5625 13.5046
H 1.57349 23.3998 13.0885
H 1.59072 22.7035 14.4326
O 18.9773 23.3086 17.7458
H 18.7433 23.7378 16.9228
H 19.2901 22.4426 17.4843
O 24.7894 12.1142 10.246
H 24.5422 11.219 10.4778
H 24.9738 12.537 11.0848
O 12.2862 14.8175 24.6177
H 12.4066 15.0901 25.5273
H 13.0303 15.1993 24.1522
O 5.86392 27.0432 27.4791
H 6.52609 27.591 27.9006
H 6.321 26.2268 27.2772
O 12.3035 20.3836 1.07247
H 11.4642 20.0331 1.37076
H 12.4147 21.1947 1.56829
O 9.66646 31.037 16.7235
H 10.2598 30.7729 16.0203
H 9.99596 30.5826 17.4989
O 6.80641 30.9925 16.2448
H 7.72018 31.1253 16.497
H 6.55429 31.8107 15.8167
O 3.96334 1.33433 23.2025
H 3.69722 32.6476 22.5529
H 3.22464 1.38374 23.8092
O 25.6602 11.1637 2.88956
H 24.8565 10.8665 3.31601
H 26.2807 11.2888 3.6076
O 32.2551 6.6794 17.7135
H 0.855369 7.20049 18.2848
H 32.6928 6.69769 16.8624
O 32.5352 26.9046 30.8785
H 32.1786 27.0837 30.0084
H 32.0646 26.1256 31.1751
O 9.38442 9.80198 5.22245
H 10.1762 10.3307 5.32113
H 9.19608 9.48473 6.10569
O 14.1383 32.0113 31.5974
H 13.3906 32.3759 31.1238
H 13.8329 31.9285 32.5008
O 15.33 10.8999 13.7335
H 15.644 10.8618 12.8301
H 15.6145 10.0723 14.1215
O 1.88608 1.81139 9.70403
H 1.58858 2.72093 9.68286
H 1.59926 1.44553 8.8673
O 27.1388 4.6244 31.3791
H 27.5751 5.25165 30.8026
H 26.5396 5.15633 31.9028
O 1.03852 4.77083 10.041
H 32.4289 5.30915 9.49563
H 1.05659 5.21967 10.8862
O 24.0992 19.6185 1.7899
H 24.3266 18.7564 1.44169
H 23.6789 19.4348 2.63005
O 2.83417 25.9649 13.3528
H 2.08435 26.5413 13.2055
H 3.47883 26.5178 13.7943
O 1.17283 24.7163 10.5614
H 1.05917 24.8443 9.61962
H 1.03784 25.5852 10.9397
O 8.70389 20.7461 28.6484
H 9.23197 21.4402 29.0427
H 8.20109 21.1867 27.9634
O 1.60527 7.22137 28.5973
H 1.28077 7.12742 27.7017
H 2.52849 7.45252 28.495
O 21.7276 14.4611 20.2903
H 21.0012 13.8741 20.0806
H 21.4019 14.9972 21.0133
O 19.4549 7.89052 21.8465
H 20.162 8.46101 21.5452
H 19.6488 7.73567 22.7709
O 11.3776 19.1896 9.36751
H 11.826 18.4144 9.70543
H 10.4466 18.9908 9.46714
O 27.031 19.7887 6.77331
H 26.2975 19.4826 7.3067
H 27.7875 19.7454 7.35813
O 18.3616 23.7045 9.9539
H 18.2525 22.8607 10.3924
H 19.262 23.9628 10.1512
O 3.20175 12.7888 21.5189
H 2.86356 13.137 22.3439
H 2.43643 12.7437 20.9458
O 7.72779 8.75542 26.1543
H 7.39964 8.07824 25.5627
H 8.33197 9.26968 25.6188
O 12.6772 10.4951 12.5531
H 13.5837 10.5719 12.8507
H 12.3521 9.70057 12.9766
O 15.6491 28.5396 9.94807
H 15.214 27.8414 9.45887
H 15.9724 29.1387 9.2751
O 31.6214 15.068 4.37575
H 31.4706 14.3734 3.73468
H 32.5594 15.0239 4.56126
O 13.1628 17.4938 27.2978
H 13.9538 17.3385 27.814
H 13.391 18.2241 26.7227
O 25.0054 4.67876 10.4038
H 25.6234 4.1254 9.92626
H 25.4164 4.8165 11.2572
O 21.9387 22.7295 20.231
H 22.3444 22.0883 19.6475
H 21.701 23.4586 19.6583
O 26.474 30.2864 15.761
H 25.6734 30.2178 15.2408
H 26.7349 29.3794 15.9207
O 16.202 20.0256 23.7419
H 15.9777 20.6834 23.0837
H 16.3043 20.5232 24.5532
O 4.40772 28.1129 25.3446
H 4.89891 27.7589 26.0859
H 5.00517 28.7412 24.9389
O 8.8107 6.97854 22.6961
H 9.33505 6.36072 23.2056
H 9.43738 7.3934 22.1034
O 17.2622 2.27034 8.7221
H 17.1319 1.32648 8.63054
H 17.2365 2.42567 9.66626
O 10.0264 27.601 2.91269
H 9.71006 28.014 2.10918
H 10.98 27.6602 2.85357
O 29.8973 12.3269 16.2216
H 29.1369 11.8097 16.4871
H 29.5578 13.2154 16.1146
O 4.18036 23.7357 15.2274
H 3.29492 23.9717 15.504
H 4.74922 24.1048 15.903
O 15.694 13.0501 22.6359
H 16.584 13.2236 22.3293
H 15.2232 13.8693 22.4821
O 28.9161 11.2016 31.3851
H 29.3368 11.9151 30.9053
H 27.9783 11.3595 31.2764
O 27.3425 16.579 28.3922
H 26.9669 16.4116 27.5278
H 26.9203 17.3866 28.6849
O 30.0607 16.2947 29.4818
H 29.9174 16.191 28.5411
H 30.0491 15.4017 29.8263
O 8.0598 25.7448 2.47885
H 8.71049 26.4093 2.70528
H 8.53663 25.1173 1.93561
O 9.5282 11.0017 21.8433
H 10.0081 10.2625 21.4697
H 8.74093 10.6101 22.2217
O 20.2213 2.1107 8.82916
H 20.7954 2.75692 8.41795
H 19.336 2.40776 8.61879
O 22.7967 13.4889 8.871
H 23.5929 13.1497 9.27996
H 22.1721 12.7656 8.92547
O 4.18291 12.5153 24.8012
H 3.51237 13.1957 24.8619
H 3.77739 11.8248 24.2769
O 16.415 16.6723 24.264
H 16.4678 17.2531 25.023
H 16.2808 15.8011 24.6373
O 8.52404 19.3642 25.005
H 8.26299 18.9422 24.1865
H 9.46443 19.5144 24.9083
O 30.8948 6.22411 13.6541
H 30.1386 6.72308 13.3451
H 30.7666 6.15523 14.6002
O 27.9042 2.06366 30.7069
H 27.2141 1.40167 30.7494
H 27.4489 2.89417 30.8455
O 28.2189 32.627 28.0784
H 27.6103 1.39747 28.159
H 28.5938 32.721 27.2027
O 5.23677 29.6194 22.3761
H 5.69914 28.8435 22.0593
H 5.17433 30.1908 21.6107
O 11.8215 11.8836 24.8292
H 12.1852 12.7689 24.8374
H 12.0745 11.5123 25.6745
O 18.9994 1.84844 1.00797
H 19.4959 1.56219 1.77467
H 19.6059 1.74069 32.2393
O 25.6751 4.74754 13.1598
H 25.7517 5.70146 13.1394
H 24.8902 4.58082 13.6816
O 4.34995 6.724 20.7325
H 3.6395 7.2466 20.3605
H 3.92459 5.9218 21.0354
O 25.4763 12.2565 20.2456
H 24.8986 12.2144 21.0077
H 24.89 12.1637 19.4947
O 32.3679 11.6899 17.6866
H 32.2084 10.8221 17.3156
H 31.6388 12.2236 17.3707
O 2.1625 16.8052 2.81649
H 1.59817 17.4981 3.15937
H 2.26937 16.1983 3.54895
O 30.8318 21.5882 0.872623
H 30.6575 21.6063 1.81365
H 31.0426 20.6735 32.6491
O 9.49861 10.2223 24.7347
H 9.86606 10.5412 23.9104
H 9.9278 10.7494 25.4086
O 23.1696 20.8027 5.99761
H 23.1151 20.0636 5.39169
H 23.6616 20.4639 6.74559
O 15.2145 30.0662 21.3784
H 14.968 30.4136 22.2356
H 16.1707 30.027 21.4014
O 8.99034 7.30434 29.5976
H 8.42822 7.63131 30.3
H 9.69879 7.94536 29.5391
O 30.8622 20.9542 28.0667
H 31.2274 21.4662 28.7883
H 30.5397 21.6087 27.4471
O 27.9893 25.637 7.25186
H 27.8797 24.8789 6.67787
H 27.098 25.8764 7.50605
O 14.9745 10.5139 7.85729
H 15.2587 9.72509 7.39551
H 15.3769 10.4433 8.72293
O 15.8473 19.0327 11.5814
H 16.7472 19.0462 11.2557
H 15.9368 18.9443 12.5303
O 2.81634 29.6938 27.9108
H 2.9068 28.8439 28.3418
H 2.16538 30.1606 28.4348
O 25.3427 26.4383 8.48735
H 24.8044 25.7355 8.12319
H 25.7645 26.046 9.25178
O 7.84474 16.6216 7.10656
H 7.11634 16.845 7.68601
H 7.84659 15.6647 7.08139
O 13.8455 0.900438 8.476
H 14.5877 32.2785 8.62484
H 13.3618 0.889599 9.3019
O 27.8342 32.1443 14.0913
H 27.6176 31.6175 14.8605
H 27.1403 31.9471 13.4621
O 31.6303 20.519 24.2276
H 31.296 20.1596 25.0494
H 32.3073 19.9005 23.953
O 27.593 23.598 5.42682
H 28.3023 23.0235 5.7151
H 27.941 24.0382 4.65132
O 8.06275 8.92156 7.61187
H 8.08343 9.60844 8.2782
H 7.26808 9.09917 7.10869
O 26.9787 29.4906 22.7458
H 26.8654 28.5404 22.7688
H 27.8678 29.6183 22.4151
O 12.1196 4.22631 4.31981
H 11.3289 4.20177 3.781
H 11.8308 3.93132 5.18341
O 3.2887 10.1719 23.5008
H 2.44103 9.987 23.0964
H 3.90911 9.6258 23.018
O 23.1835 25.5022 27.7693
H 22.8145 25.3107 28.6316
H 23.0962 24.6821 27.2835
O 25.2646 3.29978 2.77482
H 26.1193 3.17036 3.18584
H 25.4469 3.29454 1.83515
O 12.603 21.5243 21.4139
H 12.4739 21.5283 20.4655
H 13.4917 21.1897 21.5338
O 27.5618 5.11683 7.58476
H 26.6817 5.48238 7.4951
H 28.0914 5.84375 7.91249
O 29.6812 18.7459 15.0714
H 29.1858 19.5571 15.1845
H 29.5827 18.2863 15.9052
O 9.14696 9.22537 2.13899
H 9.79199 8.65493 1.72094
H 8.31242 8.97475 1.74281
O 11.5536 1.00622 30.6051
H 11.5226 1.91241 30.9118
H 11.3815 1.06491 29.6654
O 11.7067 7.79668 32.4013
H 11.3289 7.99597 31.5447
H 12.3445 7.10451 32.2271
O 9.63048 5.0845 24.4967
H 9.51633 4.41475 23.8224
H 10.5771 5.21807 24.5445
O 6.54807 24.4739 26.7427
H 6.70384 25.0449 25.9904
H 5.6578 24.1463 26.615
O 16.3812 4.85094 29.7586
H 16.9975 4.46751 29.1345
H 15.6393 4.24622 29.7656
O 25.2017 29.0367 9.13629
H 25.3309 28.1776 8.73449
H 24.4841 29.4289 8.6388
O 18.5043 15.7012 31.729
H 17.7773 16.3228 31.7654
H 18.8125 15.6392 32.6331
O 29.8388 5.08007 15.8346
H 29.0561 5.35905 16.3098
H 29.5093 4.49707 15.1507
O 10.0672 28.9286 29.2463
H 10.6692 29.5737 29.6175
H 9.276 29.4276 29.0433
O 14.3094 13.6656 19.5156
H 13.4816 13.9939 19.8667
H 14.2913 12.726 19.6971
O 7.4753 3.00683 1.45372
H 8.25011 3.02762 2.01538
H 7.1961 2.09131 1.46377
O 1.54126 25.5717 7.70863
H 32.5957 25.2868 7.61966
H 2.00347 25.1235 7.00027
O 20.6761 11.8818 9.70735
H 20.2556 12.1379 10.5282
H 20.6075 10.9272 9.69019
O 16.465 23.0643 15.6784
H 15.6529 22.6172 15.44
H 16.1783 23.8548 16.1357
O 29.6635 7.23929 19.374
H 29.6889 8.1947 19.3214
H 30.4541 6.95269 18.9167
O 10.8992 3.4788 20.6693
H 11.7722 3.84681 20.8062
H 10.4373 4.14136 20.1556
O 8.5259 3.68679 10.5118
H 7.66916 3.46306 10.8753
H 8.83089 2.87788 10.1008
O 10.214 3.26107 6.36132
H 9.71722 3.83511 5.77834
H 9.82593 2.39543 6.23375
O 23.3196 14.3953 22.7218
H 23.7464 15.2494 22.6551
H 22.7638 14.3434 21.9441
O 2.0838 15.9994 9.83859
H 2.06646 16.9541 9.77176
H 1.19325 15.7271 9.6172
O 1.94717 16.2366 32.1603
H 2.85228 16.0884 31.8864
H 1.99715 16.3344 1.14722
O 31.7293 23.8193 4.18406
H 31.1863 24.5641 3.92574
H 31.3356 23.0693 3.73822
O 9.98626 0.834546 12.8099
H 10.3825 0.97671 11.9503
H 10.4293 1.45883 13.3846
O 22.4524 22.9801 26.6626
H 22.2619 22.2651 27.2698
H 23.0811 22.6084 26.0439
O 13.8041 19.523 25.5293
H 13.0475 19.3746 24.962
H 14.5614 19.3832 24.9608
O 31.1629 30.5068 5.47362
H 31.5216 31.1582 6.07626
H 31.4387 29.6656 5.83765
O 21.382 23.9155 14.3022
H 22.1609 24.07 14.8367
H 21.5823 24.327 13.4615
O 31.3322 18.9533 32.284
H 30.7235 18.8749 31.5494
H 30.9492 18.4091 1.00817
O 9.388 2.97011 22.8374
H 9.36745 2.06653 23.1526
H 9.95409 2.9424 22.066
O 26.5479 9.92771 19.6336
H 27.2865 9.62143 20.1598
H 26.2179 10.6924 20.1054
O 20.8705 19.8221 32.6829
H 19.9137 19.8299 32.656
H 21.0833 19.5895 1.62272
O 19.3985 31.3956 8.92067
H 19.714 32.2989 8.94808
H 18.4548 31.4665 9.06432
O 19.6073 20.5239 17.1475
H 20.4893 20.1767 17.014
H 19.2027 20.4907 16.2807
O 29.8285 10.3037 24.1347
H 30.4037 11.0423 23.9351
H 30.2378 9.87749 24.8877
O 26.5342 1.44195 6.41038
H 27.0631 1.01162 5.73857
H 25.6293 1.26966 6.15026
O 18.7564 27.4217 32.3034
H 18.8193 28.2809 31.8862
H 17.8648 27.1284 32.1157
O 16.1105 10.7817 3.95766
H 17.0149 10.8005 4.27073
H 15.9216 9.85263 3.82565
O 12.7385 25.385 4.54513
H 12.8669 24.6922 3.89722
H 12.6187 26.18 4.02578
O 28.0495 18.0674 4.55332
H 28.3248 18.64 3.8374
H 27.9505 18.6527 5.30423
O 16.9087 23.6597 30.6607
H 16.5924 23.683 29.7576
H 16.1793 23.2941 31.1612
O 13.4164 32.2334 13.1189
H 12.8251 32.6671 12.5036
H 14.0235 31.7439 12.5639
O 31.7744 19.1585 7.21157
H 31.3097 18.4492 6.76753
H 32.528 18.7327 7.62038
O 29.5387 27.326 32.1389
H 28.6774 26.9595 32.3394
H 30.1559 26.6369 32.3848
O 1.38856 28.7713 20.7867
H 32.6184 28.2586 20.4484
H 1.73446 29.2295 20.0208
O 25.044 11.9701 6.80579
H 24.2428 11.4496 6.86396
H 25.6575 11.4135 6.32616
O 3.13203 8.48833 3.79576
H 2.37434 8.71183 4.3363
H 2.88013 7.67809 3.3527
O 14.9412 27.695 26.0336
H 15.3656 27.5013 26.8694
H 14.2802 28.3536 26.247
O 14.2919 21.9438 14.6526
H 13.5239 22.1534 15.184
H 13.9633 21.9221 13.7538
O 5.45372 17.5128 1.6288
H 5.1903 17.0413 0.838521
H 6.40176 17.3897 1.67691
O 12.242 20.7046 30.3489
H 12.3708 20.8267 31.2895
H 11.9753 19.7896 30.26
O 15.6003 8.2522 3.57913
H 15.0792 8.20124 2.77779
H 16.3928 7.7528 3.38225
O 28.3746 32.7176 25.2836
H 28.8599 1.00158 24.4967
H 27.9753 1.56927 25.5862
O 12.4321 24.9354 11.8884
H 12.9147 24.1166 11.7746
H 12.5291 25.144 12.8175
O 2.34369 1.38044 6.24065
H 1.66514 0.874973 6.68821
H 1.90592 1.73896 5.4686
O 11.1901 13.3211 7.51386
H 11.5015 12.5563 7.02974
H 11.358 13.1087 8.43195
O 16.3355 20.0962 4.95881
H 17.0177 19.97 4.29928
H 16.7928 20.0143 5.79573
O 5.58852 12.6109 7.16629
H 5.58624 11.7085 6.84702
H 6.17488 13.0753 6.56902
O 10.6264 21.0279 11.2053
H 11.0265 20.673 10.4114
H 10.6612 20.3072 11.8343
O 16.951 14.726 19.7347
H 16.1655 14.1828 19.799
H 17.0359 15.1284 20.5991
O 18.5527 13.4033 26.9424
H 19.0778 12.9566 27.6065
H 18.9109 14.2903 26.9099
O 25.9903 6.02707 21.5879
H 25.5236 6.2329 22.3979
H 25.5842 6.58872 20.9277
O 19.0154 29.2638 14.6404
H 19.2205 28.4901 14.1155
H 18.0592 29.2809 14.6794
O 11.9516 14.0062 12.2038
H 12.3586 14.521 12.9006
H 11.2345 14.5555 11.8872
O 15.3999 1.83772 20.7252
H 14.6534 1.43621 20.2805
H 16.1631 1.53724 20.2317
O 30.8473 5.3907 24.3322
H 31.6123 5.78972 24.7468
H 31.1224 4.49612 24.1315
O 25.0072 2.59225 21.4503
H 24.7885 2.21603 20.5977
H 24.165 2.68059 21.8967
O 9.805 25.4627 11.0671
H 10.6405 25.2683 11.4918
H 9.88263 25.0743 10.1957
O 7.02693 5.62798 27.1143
H 6.94759 6.01527 26.2425
H 6.44081 6.14937 27.6628
O 20.6595 14.5374 5.42377
H 19.7047 14.4716 5.41005
H 20.8512 15.3463 4.94937
O 15.9368 25.0148 1.48215
H 16.0271 25.4258 32.5864
H 15.7235 24.1016 1.29032
O 23.0843 16.5389 30.2177
H 22.3312 15.9631 30.3505
H 23.1448 16.6395 29.2677
O 26.5019 13.751 32.4318
H 27.4256 13.9627 32.5672
H 26.5111 12.8817 32.0313
O 22.4576 2.43764 28.6078
H 22.4892 2.59774 27.6646
H 21.9284 3.1555 28.9555
O 1.73693 1.9996 29.8977
H 2.49035 1.93159 29.3112
H 0.983162 2.07404 29.3124
O 12.6558 17.4897 13.1154
H 12.7431 17.1952 12.2089
H 13.5066 17.8746 13.3257
O 8.75043 22.8531 12.407
H 9.27601 22.1609 12.0059
H 8.96035 23.6378 11.9006
O 3.73962 1.82254 2.38017
H 4.39244 2.44446 2.70153
H 2.96016 1.99919 2.90692
O 7.70755 22.0728 26.3863
H 7.59721 23.023 26.3515
H 8.49176 21.903 25.8644
O 18.8892 1.15865 23.8799
H 18.1989 1.77732 23.6414
H 19.6603 1.46349 23.4016
O 2.28976 23.4858 22.4959
H 1.92151 23.7833 21.664
H 3.23398 23.6087 22.3981
O 18.5413 21.9069 29.5426
H 19.4718 22.0539 29.7125
H 18.0971 22.6125 30.0127
O 22.8931 27.25 9.62524
H 23.7264 26.9924 9.23094
H 22.2734 26.5805 9.33559
O 24.2022 16.8191 19.7277
H 24.7822 16.8969 18.9702
H 24.7696 16.5097 20.4337
O 5.06858 24.259 2.56081
H 4.25435 24.5718 2.16653
H 4.78681 23.6398 3.23418
O 25.5231 16.7184 4.08897
H 26.2451 17.3457 4.1286
H 25.348 16.6129 3.15387
O 20.9114 25.6046 3.17344
H 21.2486 24.8401 2.70644
H 20.7582 25.2927 4.06534
O 8.04488 29.6834 26.0952
H 8.47878 30.2577 25.4643
H 8.2504 28.7981 25.7948
O 16.6302 1.90455 31.6067
H 17.5263 2.09726 31.8826
H 16.1007 2.58865 32.0164
O 23.273 20.5328 19.4485
H 23.425 20.3633 20.3782
H 24.0426 20.1705 19.0095
O 8.57209 14.9217 18.2708
H 8.21834 15.7543 18.5836
H 8.78281 14.4358 19.0682
O 26.9566 6.87794 27.6052
H 26.2559 6.47723 28.1197
H 27.757 6.4606 27.9237
O 27.3556 26.0523 1.25485
H 26.5804 25.674 0.839959
H 27.0473 26.8751 1.6345
O 18.3201 9.54743 8.39521
H 19.2221 9.36854 8.66115
H 17.7961 9.33881 9.16854
O 27.5269 11.8153 17.6527
H 26.7013 11.8439 17.1692
H 27.4146 11.0986 18.2772
O 8.43303 21.342 7.05861
H 7.7588 20.6932 6.85694
H 9.25964 20.8878 6.89517
O 29.2082 11.3216 2.08062
H 29.9437 11.867 2.35947
H 29.3242 11.2274 1.13516
O 15.8566 19.5067 14.4813
H 15.2207 20.2031 14.6452
H 16.6758 19.9674 14.3001
O 22.7128 2.49817 25.962
H 22.3264 2.39909 25.0919
H 23.4293 1.86377 25.9801
O 26.0006 25.7271 10.8267
H 25.4939 25.7712 11.6376
H 26.8782 26.0167 11.076
O 23.3768 32.7398 31.9639
H 23.8883 1.39485 31.4428
H 23.4837 1.07628 0.902481
O 16.5817 14.7788 3.59779
H 17.2462 15.3714 3.24661
H 16.3991 14.1712 2.88104
O 10.9248 28.3157 11.893
H 11.828 28.5439 12.1127
H 10.4394 28.4463 12.7076
O 22.5765 29.0001 7.68736
H 21.6447 29.1174 7.50254
H 22.5986 28.5318 8.52185
O 31.4892 28.0581 23.4152
H 32.2779 28.4773 23.0711
H 31.3525 27.3004 22.8464
O 21.3447 23.1011 1.22135
H 20.6928 23.7663 1.00091
H 21.2264 22.4203 32.5229
O 19.6606 7.41493 15.425
H 20.2996 6.88228 15.8986
H 19.0139 6.78596 15.1051
O 13.981 26.5177 8.75564
H 13.0268 26.5893 8.78199
H 14.1557 25.5868 8.89437
O 3.73054 10.9834 19.3852
H 3.34198 11.1773 20.2382
H 3.44324 10.0919 19.1876
O 20.1641 6.30361 31.1509
H 20.1946 5.73615 30.3807
H 20.558 7.12574 30.8591
O 12.6192 21.629 18.2571
H 13.3389 22.1729 18.577
H 12.285 22.0983 17.4928
O 20.2536 21.5238 12.7587
H 20.7834 20.7384 12.8959
H 20.7581 22.2278 13.1661
O 2.74792 17.6221 6.48442
H 3.28267 18.1757 5.9153
H 3.31157 17.4342 7.23489
O 13.2104 23.3597 29.5843
H 13.1401 24.2632 29.2761
H 12.9206 23.394 30.496
O 27.7695 8.28208 22.0863
H 28.6185 7.84151 22.1244
H 27.161 7.60529 21.7897
O 19.4123 12.9661 20.1428
H 18.7416 13.6266 19.9693
H 19.2612 12.7035 21.0508
O 21.7846 14.4068 11.5175
H 22.4015 14.1415 12.1996
H 22.2203 14.1764 10.697
O 30.9643 15.2132 16.865
H 31.4907 15.0564 17.6489
H 30.292 15.8333 17.1475
O 16.9528 6.19838 22.1872
H 17.6756 6.74705 21.8827
H 16.2295 6.40378 21.5947
O 9.61275 3.94004 28.2819
H 9.09461 3.48646 28.9467
H 10.4528 4.11109 28.7077
O 14.8735 22.5239 4.04605
H 15.0788 21.6042 4.21425
H 14.0873 22.4984 3.50061
O 6.53557 32.4453 1.21331
H 6.44983 31.633 32.6782
H 6.82654 32.1643 2.08086
O 23.1161 17.0346 15.8249
H 23.9148 17.0254 15.2975
H 23.0224 17.9458 16.1027
O 5.89643 3.08128 27.394
H 6.13247 2.53214 26.6464
H 6.23302 3.94896 27.1702
O 18.8185 25.5931 15.4702
H 17.8692 25.629 15.353
H 19.1397 25.14 14.6906
O 31.9771 13.9815 28.2236
H 32.7461 14.529 28.0655
H 31.4176 14.1274 27.4608
O 4.54294 17.7553 16.2426
H 3.8 18.2771 16.5459
H 4.5929 17.9322 15.3032
O 11.2768 2.76619 14.3119
H 11.8263 3.51055 14.0665
H 10.3921 3.12784 14.3639
O 29.7347 30.3803 13.1704
H 29.1437 31.12 13.3108
H 29.5944 30.1311 12.2569
O 19.6166 23.5631 23.1464
H 20.0565 24.3483 22.8205
H 18.6887 23.7972 23.1628
O 6.22455 19.9657 6.56384
H 5.77268 20.6589 7.04496
H 6.15396 19.1962 7.12878
O 16.9302 30.6248 29.8847
H 17.752 30.6438 30.3751
H 16.7148 29.6949 29.8133
O 10.9107 19.6022 6.53614
H 11.2985 20.4679 6.40787
H 11.1577 19.3584 7.42824
O 20.0239 22.7875 25.6519
H 19.7181 23.6211 25.2943
H 20.8322 23.0071 26.1151
O 16.4493 21.8464 25.9234
H 16.7468 22.4506 25.2432
H 17.2166 21.3084 26.1187
O 2.89026 4.63658 21.4652
H 2.70537 3.93138 20.845
H 2.11057 5.19114 21.4375
O 13.3297 25.9584 29.2432
H 13.3308 26.2221 30.1634
H 12.7181 26.5619 28.8214
O 5.57525 9.93433 6.05123
H 5.47009 10.1265 5.11943
H 4.74556 9.53226 6.30849
O 18.3475 19.4478 30.8863
H 19.0173 18.978 30.3895
H 18.2734 20.2953 30.4475
O 27.2184 22.5906 10.4477
H 26.5302 22.608 9.78264
H 27.8572 23.2378 10.149
O 25.3551 14.6935 29.482
H 24.7431 15.0584 28.8428
H 26.1633 15.1892 29.3505
O 18.0595 7.08911 7.32506
H 17.1332 7.29697 7.20259
H 18.4265 7.86698 7.74512
O 23.6667 24.6598 7.36412
H 24.0717 23.8158 7.56329
H 22.9396 24.7291 7.98285
O 2.96178 30.9871 4.96288
H 3.58117 30.9705 4.23328
H 2.75651 31.9144 5.08237
O 28.7504 6.24375 29.6426
H 29.6791 6.09391 29.4655
H 28.7246 7.09093 30.0874
O 10.3548 2.40588 1.46331
H 10.5259 3.04387 2.15608
H 10.5325 2.88013 32.615
O 26.2163 29.1526 12.4586
H 25.8512 28.8115 13.275
H 27.0979 28.7821 12.4166
O 3.85126 10.2768 13.4133
H 4.74652 10.3864 13.7337
H 3.9067 9.55301 12.7893
O 7.67469 7.37899 11.0216
H 6.74344 7.17456 11.1065
H 8.12238 6.58774 11.3211
O 22.4101 5.63489 13.813
H 21.9878 5.76085 14.6628
H 21.8044 5.07777 13.3243
O 13.6675 14.4412 16.7783
H 14.2105 13.7546 16.3911
H 13.609 14.2072 17.7046
O 4.79906 1.00213 17.5351
H 4.54906 0.965594 18.4584
H 5.40724 1.73924 17.4802
O 28.8536 8.45591 31.0145
H 28.6063 8.34057 31.932
H 28.5186 9.32213 30.7828
O 0.956299 30.483 3.18369
H 1.56581 30.3795 3.91446
H 32.1202 30.8226 3.58472
O 16.1151 16.9645 8.66702
H 15.7927 16.4434 9.40236
H 15.387 16.9791 8.04575
O 23.8804 22.2502 1.78492
H 23.8172 21.2953 1.76493
H 23.0551 22.5533 1.40643
O 10.3683 16.4867 23.8972
H 10.892 17.2859 23.839
H 10.9931 15.8086 24.154
O 15.3236 9.8171 29.2308
H 14.814 10.6032 29.0344
H 14.6714 9.12029 29.3039
O 8.61593 13.5045 8.5355
H 8.35979 12.662 8.91088
H 9.54568 13.4036 8.33149
O 29.4648 7.43038 9.16413
H 30.3648 7.18001 8.95541
H 29.4006 7.32581 10.1134
O 11.848 10.1131 3.09899
H 10.9605 9.75592 3.13122
H 11.966 10.5396 3.94778
O 4.95579 23.8695 22.2508
H 4.82264 23.5474 21.3594
H 5.08123 24.813 22.1489
O 20.389 10.0837 32.4561
H 20.0587 9.23374 32.7471
H 20.8641 10.4282 1.24837
O 29.447 25.7845 18.2593
H 28.5897 26.1934 18.1402
H 29.9593 26.4362 18.7379
O 15.5308 4.31375 1.02735
H 16.0174 4.8697 1.63595
H 15.094 4.92834 32.4016
O 24.9633 6.94006 23.8751
H 24.1193 6.88797 23.4267
H 24.9125 6.27382 24.5605
O 9.07088 28.8205 32.668
H 9.28692 29.5628 32.1036
H 9.1485 28.0553 32.0982
O 7.27752 20.559 9.98755
H 6.48252 20.0707 10.2015
H 7.96685 19.8954 9.96081
O 32.6814 8.85116 5.1282
H 31.9257 8.27702 5.25319
H 32.5933 9.17172 4.23058
O 10.3415 18.2559 1.7433
H 10.7815 17.4498 1.47354
H 10.4851 18.303 2.6885
O 31.5611 5.4309 29.4293
H 31.5381 5.50035 30.3837
H 32.3184 5.9551 29.1687
O 13.8757 10.9571 19.7741
H 14.2849 10.0945 19.7043
H 12.9689 10.8152 19.5025
O 14.9526 25.8195 11.8728
H 14.1128 25.4262 11.6353
H 15.0577 25.6176 12.8026
O 26.4083 2.68891 27.8336
H 25.7786 1.98399 27.6828
H 26.1395 3.07676 28.6664
O 19.8292 16.1179 10.6001
H 20.4202 15.5297 11.0701
H 19.1979 15.5359 10.1769
O 5.19372 14.5282 20.5336
H 5.64978 15.0087 21.2244
H 4.52278 14.0244 20.9943
O 32.0172 15.1212 19.5101
H 31.0838 15.2552 19.6743
H 32.2614 14.3988 20.0885
O 1.81343 18.67 9.46034
H 1.16649 18.7749 10.158
H 2.4462 19.372 9.61229
O 20.5173 2.61077 16.4552
H 20.8618 3.49858 16.3583
H 21.2944 2.0624 16.5635
O 16.9989 12.9307 11.3116
H 17.8948 12.8557 11.6401
H 16.7276 12.0278 11.1462
O 23.9874 17.4624 11.9845
H 24.6657 17.5554 12.6535
H 24.2882 16.737 11.4372
O 21.0006 24.998 19.1892
H 20.7156 25.1037 20.0969
H 20.3128 24.4718 18.7815
O 24.8904 21.2785 22.6612
H 25.1722 21.9957 23.2289
H 24.7778 20.5343 23.2526
O 4.62647 32.6478 12.9008
H 4.4402 32.5259 13.8318
H 3.76778 32.6208 12.4787
O 2.00835 27.3286 4.02036
H 2.3684 26.6978 4.64388
H 1.10408 27.4589 4.30591
O 13.0696 12.4195 1.52632
H 12.4907 11.7294 1.85023
H 12.6809 12.6876 32.6576
O 16.4533 3.54654 5.03222
H 15.7102 3.48054 5.63189
H 16.3086 2.84893 4.39299
O 24.5521 20.8548 26.284
H 24.054 20.4385 26.9874
H 24.9879 20.1294 25.8366
O 29.292 15.8612 20.2285
H 29.2261 16.4379 19.4673
H 29.8632 16.3307 20.8364
O 24.1293 11.5777 22.5133
H 24.0966 12.4806 22.8294
H 24.8547 11.1807 22.9955
O 19.0332 3.88009 3.01521
H 18.384 3.58164 3.65219
H 18.76 3.48098 2.18919
O 14.5249 12.5571 5.27699
H 15.18 12.0313 4.81804
H 13.8202 11.9411 5.4774
O 29.8187 17.9752 24.9423
H 28.8891 18.0921 25.1382
H 30.2605 18.1218 25.7787
O 7.06332 9.21997 20.3249
H 8.01405 9.25753 20.4295
H 6.75955 10.092 20.577
O 21.8886 22.5447 4.33179
H 21.928 21.7889 4.91785
H 21.0708 22.4306 3.84762
O 3.55653 8.17034 6.7521
H 3.91963 7.62941 6.05082
H 3.52582 7.58917 7.51205
O 18.6609 12.9924 22.8455
H 19.2858 13.5086 23.3547
H 18.4017 12.2821 23.4324
O 13.0409 25.4735 20.3228
H 13.4878 24.6504 20.1256
H 13.4681 26.1193 19.76
O 7.07443 32.0609 21.6946
H 6.60026 31.9769 20.8674
H 6.64496 32.7884 22.1447
O 3.51092 23.4687 26.2812
H 3.38011 22.6861 25.7459
H 3.31768 24.1977 25.6918
O 17.963 16.2742 21.898
H 17.5334 16.9345 21.3543
H 17.793 16.5559 22.7969
O 6.91544 12.7382 16.6758
H 7.27907 11.9135 16.9981
H 6.03799 12.7785 17.0562
O 15.3013 7.82283 7.35411
H 15.1787 7.49118 8.24362
H 14.8703 7.17609 6.79536
O 23.4628 13.6814 31.4065
H 23.6706 13.4273 30.5074
H 22.5738 14.0328 31.3573
O 18.4305 0.909069 15.8073
H 17.5879 1.3567 15.8837
H 19.0231 1.41674 16.3617
O 29.8344 1.2134 23.0016
H 29.2368 1.94059 22.8274
H 30.6555 1.63355 23.2574
O 5.86424 3.01855 4.02581
H 6.73721 3.12435 3.64769
H 5.98526 2.38889 4.73653
O 16.2558 14.9852 13.788
H 15.9646 14.6942 14.6522
H 16.2273 14.1961 13.2469
O 23.1915 28.7704 30.3738
H 22.5791 28.2669 30.9102
H 24.0349 28.3358 30.5006
O 18.6512 21.5079 20.6164
H 19.0159 22.3016 20.2249
H 17.8009 21.7797 20.9619
O 15.8467 26.4469 28.4747
H 16.1226 25.5438 28.3181
H 14.9115 26.3821 28.6679
O 27.0267 23.0966 20.2147
H 26.489 23.4723 19.5176
H 27.7943 22.7457 19.7631
O 27.1379 30.1783 28.4363
H 27.6082 31.0116 28.4108
H 27.7971 29.5388 28.7061
O 21.9764 6.49662 7.51944
H 21.8352 7.30131 8.01822
H 22.1315 6.79405 6.62294
O 14.4098 18.411 6.56059
H 15.2126 18.2622 6.06104
H 13.705 18.2852 5.92524
O 1.502 31.4582 29.6058
H 1.7045 30.9767 30.4079
H 1.72151 32.3673 29.8097
O 7.36014 10.1535 29.9758
H 6.41192 10.1185 29.8497
H 7.4787 10.6962 30.7553
O 1.09603 23.5086 15.9541
H 32.7315 22.7438 16.4267
H 32.3343 24.1325 15.9732
O 11.0332 20.4374 27.4637
H 10.1053 20.3442 27.6795
H 11.0408 20.9407 26.6495
O 18.1132 5.35477 14.7799
H 17.7985 5.58043 13.9045
H 18.7687 4.67333 14.631
O 10.2293 13.7705 27.8031
H 11.1796 13.8839 27.7866
H 9.9325 14.3354 28.5165
O 12.2474 16.5615 10.2621
H 11.3719 16.1898 10.3695
H 12.5229 16.2787 9.39014
O 29.3044 23.2347 18.5732
H 29.1903 24.1807 18.4819
H 28.9546 22.8712 17.7597
O 21.0586 19.6881 25.605
H 21.6525 19.8814 26.3303
H 20.1831 19.8018 25.9749
O 29.6244 20.2411 8.14105
H 30.4938 19.8408 8.15522
H 29.7066 20.9716 7.528
O 2.11266 2.96374 16.4427
H 1.94922 3.0459 15.5031
H 1.27072 2.69473 16.8101
O 6.93165 3.11373 17.3986
H 7.10847 3.34969 16.4879
H 7.53725 2.3956 17.5824
O 1.19961 19.3816 21.866
H 1.44719 18.457 21.878
H 32.236 19.3786 21.6298
O 26.7774 13.1041 25.5183
H 25.8304 13.0323 25.6373
H 27.1367 13.031 26.4025
O 11.8437 3.71995 8.77224
H 11.6063 2.89599 9.19763
H 11.4501 3.66266 7.9016
O 14.6567 8.09244 18.3528
H 14.47 7.71194 19.211
H 13.8494 7.96694 17.8539
O 19.8972 30.4089 18.8178
H 19.2248 30.8205 19.3607
H 19.6144 29.4982 18.7349
O 4.57204 14.8489 9.03594
H 4.49926 14.1457 8.39063
H 3.66636 15.0806 9.24161
O 27.79 29.802 8.40191
H 26.9058 29.8477 8.76578
H 27.6567 29.6829 7.46157
O 10.1222 22.7038 29.4991
H 10.7525 22.8894 30.1952
H 9.42127 23.3417 29.6337
O 32.7015 17.5399 29.6051
H 32.0124 16.912 29.3881
H 0.966803 17.9435 28.7679
O 21.4073 4.23036 4.57453
H 20.5314 3.99175 4.27109
H 21.8599 3.3939 4.68301
O 22.6284 32.4327 9.89203
H 21.7358 32.6816 10.1322
H 22.8889 31.7989 10.5604
O 31.7857 2.94131 23.6284
H 32.4758 2.83277 24.2828
H 32.2541 3.03277 22.7986
O 28.759 5.01483 5.11349
H 28.4552 4.22731 4.6621
H 28.361 4.962 5.98243
O 4.61935 2.77584 9.35852
H 4.92106 3.25236 10.1319
H 3.70777 2.55709 9.5519
O 4.88582 4.84285 18.139
H 4.24784 4.43724 18.7262
H 5.5655 4.1782 18.0272
O 8.83055 4.04887 14.2692
H 9.0388 4.61811 13.5284
H 8.46027 4.63718 14.9273
O 23.6806 1.24125 2.75681
H 24.2484 32.4766 3.00786
H 24.1748 2.02474 2.99809
O 14.1961 15.6329 22.5849
H 14.0264 16.067 21.7488
H 14.8996 16.1456 22.9831
O 21.0847 11.6564 5.33686
H 21.2595 11.4551 4.41752
H 20.8124 12.574 5.3341
O 3.24943 25.326 5.35716
H 2.93097 24.7496 4.6625
H 4.11586 25.604 5.06001
O 27.1431 20.1639 19.5907
H 27.9688 19.8235 19.2463
H 26.5832 20.2598 18.8203
O 6.68226 12.7334 12.7479
H 7.6075 12.613 12.5342
H 6.21411 12.2428 12.0723
O 1.81424 28.0008 8.68875
H 1.61684 27.1094 8.40114
H 2.15994 27.896 9.57516
O 20.4889 18.1493 14.3918
H 20.0562 17.2988 14.3176
H 21.151 18.0232 15.0715
O 17.1891 30.5358 1.90779
H 17.7334 29.9322 2.41339
H 17.6937 30.705 1.11217
O 32.4272 18.4187 14.6196
H 32.6171 18.7262 15.5059
H 31.4891 18.5724 14.508
O 11.2492 26.9084 8.53746
H 10.889 26.3638 7.83756
H 11.5649 27.6944 8.0916
O 28.1196 32.341 8.97326
H 28.2945 32.3686 9.91394
H 28.0523 31.4083 8.7689
O 29.9745 25.4327 11.6986
H 29.6181 25.0658 12.5077
H 30.7837 25.867 11.9681
O 4.3867 25.1231 9.0795
H 3.87481 25.8108 8.65365
H 4.51407 24.4623 8.39881
O 14.4145 23.3467 19.4363
H 14.8197 22.768 20.0821
H 15.1523 23.7596 18.9875
O 18.8361 7.12349 18.1323
H 19.2529 7.28114 17.2852
H 17.9254 6.92142 17.9178
O 27.5572 10.9696 13.8281
H 26.8037 10.4782 14.1554
H 27.4019 11.8684 14.1182
O 32.7228 28.5139 15.874
H 32.1425 29.2702 15.7875
H 32.7461 28.3356 16.8142
O 32.7013 19.0943 3.74297
H 31.7691 19.3025 3.68043
H 1.07265 19.6929 4.41039
O 7.38861 20.5446 16.5826
H 7.68136 21.4284 16.8047
H 6.46657 20.5256 16.839
O 4.1825 9.58809 32.5441
H 3.88988 10.2108 31.8787
H 3.90815 8.73385 32.2106
O 24.0049 30.2372 14.4184
H 23.7122 29.3296 14.3366
H 23.5837 30.5541 15.2174
O 19.7971 31.4112 28.1318
H 19.8646 32.0835 27.4538
H 19.5185 30.6246 27.6628
O 22.2979 6.78122 28.6906
H 22.0401 5.86141 28.7516
H 23.1793 6.80863 29.0631
O 26.6577 3.36161 16.3739
H 25.7235 3.48816 16.2078
H 26.7388 2.43348 16.5935
O 17.2193 18.0141 26.7778
H 17.77 17.27 27.0214
H 17.7743 18.5471 26.2085
O 24.6652 24.3403 4.69853
H 24.2725 25.1819 4.46682
H 24.5045 24.251 5.6379
O 11.2371 16.0091 32.6345
H 10.6511 16.0191 31.8777