LAMMPS (22 Aug 2018)
Reading data file ...
  orthogonal box = (0 0 0) to (33.6962 33.6962 33.6962)
  4 by 4 by 8 MPI processor grid
  reading atoms ...
  3152 atoms
  scanning bonds ...
  2 = max bonds/atom
  scanning angles ...
  1 = max angles/atom
  reading bonds ...
  2000 bonds
  reading angles ...
  1000 angles
Finding 1-2 1-3 1-4 neighbors ...
  special bond factors lj:   0          0          0         
  special bond factors coul: 0          0          0         
  2 = max # of 1-2 neighbors
  1 = max # of 1-3 neighbors
  1 = max # of 1-4 neighbors
  2 = max # of special neighbors
Setting atom values ...
  1000 settings made for charge
Setting atom values ...
  2000 settings made for charge
Setting atom values ...
  76 settings made for charge
Setting atom values ...
  76 settings made for charge
1000 atoms in group wat
76 atoms in group Na
76 atoms in group Cl
PPPM initialization ...
  extracting TIP4P info from pair style
  using 12-bit tables for long-range coulomb (../kspace.cpp:321)
  G vector (1/distance) = 0.311414
  grid = 32 32 32
  stencil order = 5
  estimated absolute RMS force accuracy = 0.0032261
  estimated relative force accuracy = 9.71531e-06
  using double precision FFTs
  3d grid and FFT values/proc = 2475 256
Neighbor list info ...
  update every 1 steps, delay 0 steps, check yes
  max neighbors/atom: 2000, page size: 100000
  master list distance cutoff = 12.3092
  ghost atom cutoff = 12.3092
  binsize = 6.1546, bins = 6 6 6
  1 neighbor lists, perpetual/occasional/extra = 1 0 0
  (1) pair lj/cut/tip4p/long, perpetual
      attributes: half, newton on
      pair build: half/bin/newton
      stencil: half/bin/3d/newton
      bin: standard
Setting up cg style minimization ...
  Unit style    : real
  Current step  : 0
Per MPI rank memory allocation (min/avg/max) = 8.192 | 8.248 | 8.723 Mbytes
Step Temp E_pair E_mol TotEng Press 
       0            0    713.02913 3.2938476e-05    713.02916     22449.95 
    1000            0   -22977.705    376.01957   -22601.685   -4850.9217 
Loop time of 1.40348 on 128 procs for 1000 steps with 3152 atoms

99.1% CPU use with 128 MPI tasks x no OpenMP threads

Minimization stats:
  Stopping criterion = max iterations
  Energy initial, next-to-last, final = 
         713.029160003     -22601.5871855     -22601.6854384
  Force two-norm initial, final = 1835.69 20.4042
  Force max component initial, final = 225.604 4.36606
  Final line search alpha, max atom move = 0.00506656 0.0221209
  Iterations, force evaluations = 1000 1770

MPI task timing breakdown:
Section |  min time  |  avg time  |  max time  |%varavg| %total
---------------------------------------------------------------
Pair    | 0.15362    | 0.34776    | 0.5501     |  14.0 | 24.78
Bond    | 0.00090542 | 0.0016102  | 0.0022416  |   0.6 |  0.11
Kspace  | 0.59799    | 0.79732    | 0.98223    |   9.3 | 56.81
Neigh   | 0.0063858  | 0.0065067  | 0.0066445  |   0.1 |  0.46
Comm    | 0.15054    | 0.17204    | 0.1961     |   2.6 | 12.26
Output  | 9.0479e-05 | 9.3562e-05 | 9.622e-05  |   0.0 |  0.01
Modify  | 0          | 0          | 0          |   0.0 |  0.00
Other   |            | 0.07815    |            |       |  5.57

Nlocal:    24.625 ave 37 max 9 min
Histogram: 2 4 5 17 11 33 25 17 13 1
Nghost:    2564.34 ave 2645 max 2508 min
Histogram: 6 19 36 23 12 1 3 8 11 9
Neighs:    7967.29 ave 12856 max 2526 min
Histogram: 2 5 11 15 29 19 20 16 7 4

Total # of neighbors = 1019813
Ave neighs/atom = 323.545
Ave special neighs/atom = 1.90355
Neighbor list builds = 19
Dangerous builds = 0
Finding SHAKE clusters ...
  0 = # of size 2 clusters
  0 = # of size 3 clusters
  0 = # of size 4 clusters
  1000 = # of frozen angles
PPPM initialization ...
  extracting TIP4P info from pair style
  using 12-bit tables for long-range coulomb (../kspace.cpp:321)
  G vector (1/distance) = 0.311414
  grid = 32 32 32
  stencil order = 5
  estimated absolute RMS force accuracy = 0.0032261
  estimated relative force accuracy = 9.71531e-06
  using double precision FFTs
  3d grid and FFT values/proc = 2475 256
Setting up Verlet run ...
  Unit style    : real
  Current step  : 0
  Time step     : 0.001
Per MPI rank memory allocation (min/avg/max) = 7.943 | 8.088 | 8.207 Mbytes
Step Temp E_pair E_mol TotEng Press Volume 
       0    436.54021   -22977.705            0    -20178.73    423646.73    38259.716 
   10000    178.89381   -21378.169            0   -20231.152    1330.4182    38055.247 
Loop time of 9.16206 on 128 procs for 10000 steps with 3152 atoms

Performance: 0.094 ns/day, 254.502 hours/ns, 1091.457 timesteps/s
99.4% CPU use with 128 MPI tasks x no OpenMP threads

MPI task timing breakdown:
Section |  min time  |  avg time  |  max time  |%varavg| %total
---------------------------------------------------------------
Pair    | 0.71273    | 2.3174     | 3.6958     |  41.7 | 25.29
Bond    | 0.00089797 | 0.0011138  | 0.0019014  |   0.5 |  0.01
Kspace  | 3.2815     | 4.6314     | 6.1637     |  29.5 | 50.55
Neigh   | 0          | 0          | 0          |   0.0 |  0.00
Comm    | 0.79957    | 0.92417    | 1.0623     |   6.3 | 10.09
Output  | 0.00010089 | 0.00010343 | 0.00010676 |   0.0 |  0.00
Modify  | 1.1136     | 1.1796     | 1.2317     |   2.4 | 12.87
Other   |            | 0.1084     |            |       |  1.18

Nlocal:    24.625 ave 36 max 9 min
Histogram: 2 4 4 13 15 36 17 19 12 6
Nghost:    2563.81 ave 2648 max 2510 min
Histogram: 10 27 31 21 7 0 4 6 13 9
Neighs:    7968.02 ave 12409 max 2514 min
Histogram: 3 3 9 15 22 24 22 11 13 6

Total # of neighbors = 1019906
Ave neighs/atom = 323.574
Ave special neighs/atom = 1.90355
Neighbor list builds = 0
Dangerous builds = 0
PPPM initialization ...
  extracting TIP4P info from pair style
  using 12-bit tables for long-range coulomb (../kspace.cpp:321)
  G vector (1/distance) = 0.311542
  grid = 32 32 32
  stencil order = 5
  estimated absolute RMS force accuracy = 0.00320903
  estimated relative force accuracy = 9.66389e-06
  using double precision FFTs
  3d grid and FFT values/proc = 2475 256
Setting up Verlet run ...
  Unit style    : real
  Current step  : 10000
  Time step     : 0.01
Per MPI rank memory allocation (min/avg/max) = 7.943 | 8.088 | 8.207 Mbytes
Step Temp E_pair E_mol TotEng Press Volume 
   10000    178.89381   -21378.169            0   -20231.151   -92240.673    38055.247 
   20000    292.96817   -20149.073            0   -18270.642   -502.77625     38127.05 
Loop time of 9.34332 on 128 procs for 10000 steps with 3152 atoms

Performance: 0.925 ns/day, 25.954 hours/ns, 1070.283 timesteps/s
99.4% CPU use with 128 MPI tasks x no OpenMP threads

MPI task timing breakdown:
Section |  min time  |  avg time  |  max time  |%varavg| %total
---------------------------------------------------------------
Pair    | 0.83503    | 2.3011     | 3.8047     |  40.0 | 24.63
Bond    | 0.00089432 | 0.001115   | 0.0019687  |   0.5 |  0.01
Kspace  | 3.3558     | 4.8326     | 6.2308     |  27.7 | 51.72
Neigh   | 0.0012016  | 0.0012453  | 0.001285   |   0.0 |  0.01
Comm    | 0.80148    | 0.9271     | 1.0636     |   6.4 |  9.92
Output  | 9.3655e-05 | 9.7857e-05 | 0.00010183 |   0.0 |  0.00
Modify  | 1.0822     | 1.1535     | 1.2011     |   2.5 | 12.35
Other   |            | 0.1265     |            |       |  1.35

Nlocal:    24.625 ave 36 max 12 min
Histogram: 4 2 11 19 15 32 19 14 7 5
Nghost:    2554.75 ave 2632 max 2504 min
Histogram: 12 24 27 23 9 1 2 4 17 9
Neighs:    7921.14 ave 12411 max 3326 min
Histogram: 4 8 13 12 27 21 19 12 6 6

Total # of neighbors = 1013906
Ave neighs/atom = 321.671
Ave special neighs/atom = 1.90355
Neighbor list builds = 4
Dangerous builds = 0
PPPM initialization ...
  extracting TIP4P info from pair style
  using 12-bit tables for long-range coulomb (../kspace.cpp:321)
  G vector (1/distance) = 0.311497
  grid = 32 32 32
  stencil order = 5
  estimated absolute RMS force accuracy = 0.00321502
  estimated relative force accuracy = 9.68194e-06
  using double precision FFTs
  3d grid and FFT values/proc = 2475 256
Setting up Verlet run ...
  Unit style    : real
  Current step  : 20000
  Time step     : 0.1
Per MPI rank memory allocation (min/avg/max) = 7.943 | 8.094 | 8.207 Mbytes
Step Temp E_pair E_mol TotEng Press Volume 
   20000    292.96817   -20149.073            0   -18270.643   -19879.803     38127.05 
   30000     299.2975   -20294.444            0   -18375.431   -197.28181    33681.926 
Loop time of 9.32035 on 128 procs for 10000 steps with 3152 atoms

Performance: 9.270 ns/day, 2.589 hours/ns, 1072.921 timesteps/s
99.5% CPU use with 128 MPI tasks x no OpenMP threads

MPI task timing breakdown:
Section |  min time  |  avg time  |  max time  |%varavg| %total
---------------------------------------------------------------
Pair    | 1.5683     | 2.565      | 3.6445     |  28.7 | 27.52
Bond    | 0.00089042 | 0.0011297  | 0.002006   |   0.5 |  0.01
Kspace  | 3.3167     | 4.4482     | 5.4367     |  21.8 | 47.73
Neigh   | 0.015853   | 0.016127   | 0.016377   |   0.1 |  0.17
Comm    | 0.89792    | 1.0115     | 1.1259     |   5.3 | 10.85
Output  | 8.7663e-05 | 9.0561e-05 | 9.3806e-05 |   0.0 |  0.00
Modify  | 1.0845     | 1.165      | 1.217      |   2.8 | 12.50
Other   |            | 0.1134     |            |       |  1.22

Nlocal:    24.625 ave 34 max 16 min
Histogram: 4 4 17 23 16 29 17 10 5 3
Nghost:    2846.7 ave 2870 max 2821 min
Histogram: 2 5 20 19 16 9 24 18 12 3
Neighs:    9001.07 ave 12824 max 5552 min
Histogram: 2 12 9 27 27 15 19 6 6 5

Total # of neighbors = 1152137
Ave neighs/atom = 365.526
Ave special neighs/atom = 1.90355
Neighbor list builds = 51
Dangerous builds = 0
PPPM initialization ...
  extracting TIP4P info from pair style
  using 12-bit tables for long-range coulomb (../kspace.cpp:321)
  G vector (1/distance) = 0.309832
  grid = 30 30 30
  stencil order = 5
  estimated absolute RMS force accuracy = 0.00379482
  estimated relative force accuracy = 1.1428e-05
  using double precision FFTs
  3d grid and FFT values/proc = 2475 256
Setting up Verlet run ...
  Unit style    : real
  Current step  : 30000
  Time step     : 0.2
Per MPI rank memory allocation (min/avg/max) = 7.949 | 8.161 | 8.216 Mbytes
Step Temp E_pair E_mol TotEng Press Volume 
   30000     299.2975   -20294.429            0   -18375.416    1708.7233    33681.926 
   40000    295.10518    -20594.07            0   -18701.938    99.985382    32660.779 
Loop time of 9.21833 on 128 procs for 10000 steps with 3152 atoms

Performance: 18.745 ns/day, 1.280 hours/ns, 1084.795 timesteps/s
99.5% CPU use with 128 MPI tasks x no OpenMP threads

MPI task timing breakdown:
Section |  min time  |  avg time  |  max time  |%varavg| %total
---------------------------------------------------------------
Pair    | 1.8977     | 2.7429     | 3.6439     |  20.1 | 29.76
Bond    | 0.00091846 | 0.0011458  | 0.0021131  |   0.5 |  0.01
Kspace  | 3.1798     | 4.0809     | 4.9274     |  16.4 | 44.27
Neigh   | 0.029293   | 0.02976    | 0.030316   |   0.2 |  0.32
Comm    | 0.95556    | 1.0654     | 1.1871     |   4.9 | 11.56
Output  | 8.576e-05  | 8.8525e-05 | 9.3785e-05 |   0.0 |  0.00
Modify  | 0.95628    | 1.1574     | 1.2413     |   6.3 | 12.55
Other   |            | 0.1408     |            |       |  1.53

Nlocal:    24.625 ave 34 max 17 min
Histogram: 3 12 25 11 24 23 13 14 1 2
Nghost:    2909.84 ave 2940 max 2874 min
Histogram: 1 5 12 20 15 19 25 10 15 6
Neighs:    9272.61 ave 12406 max 5770 min
Histogram: 2 5 18 14 19 23 16 16 7 8

Total # of neighbors = 1186894
Ave neighs/atom = 376.553
Ave special neighs/atom = 1.90355
Neighbor list builds = 96
Dangerous builds = 0
PPPM initialization ...
  extracting TIP4P info from pair style
  using 12-bit tables for long-range coulomb (../kspace.cpp:321)
  G vector (1/distance) = 0.310573
  grid = 30 30 30
  stencil order = 5
  estimated absolute RMS force accuracy = 0.00368052
  estimated relative force accuracy = 1.10838e-05
  using double precision FFTs
  3d grid and FFT values/proc = 2475 256
Setting up Verlet run ...
  Unit style    : real
  Current step  : 40000
  Time step     : 0.5
Per MPI rank memory allocation (min/avg/max) = 7.952 | 8.194 | 8.218 Mbytes
Step Temp E_pair E_mol TotEng Press Volume 
   40000    295.10518   -20594.067            0   -18701.934    2003.5713    32660.779 
   50000    298.67837    -20732.09            0   -18817.047   -309.35935    32543.329 
Loop time of 10.0656 on 128 procs for 10000 steps with 3152 atoms

Performance: 42.918 ns/day, 0.559 hours/ns, 993.479 timesteps/s
99.4% CPU use with 128 MPI tasks x no OpenMP threads

MPI task timing breakdown:
Section |  min time  |  avg time  |  max time  |%varavg| %total
---------------------------------------------------------------
Pair    | 2.0042     | 2.8033     | 3.597      |  19.2 | 27.85
Bond    | 0.00091254 | 0.0011521  | 0.0021779  |   0.5 |  0.01
Kspace  | 3.9313     | 4.7299     | 5.5331     |  14.8 | 46.99
Neigh   | 0.074163   | 0.075332   | 0.076698   |   0.3 |  0.75
Comm    | 0.98442    | 1.0981     | 1.2253     |   5.0 | 10.91
Output  | 8.8665e-05 | 9.0699e-05 | 9.4076e-05 |   0.0 |  0.00
Modify  | 1.012      | 1.2121     | 1.2983     |   6.1 | 12.04
Other   |            | 0.1457     |            |       |  1.45

Nlocal:    24.625 ave 32 max 17 min
Histogram: 2 1 10 22 31 17 24 7 7 7
Nghost:    2934.73 ave 2970 max 2900 min
Histogram: 4 8 6 21 26 22 21 8 9 3
Neighs:    9349.96 ave 13052 max 6180 min
Histogram: 6 5 16 21 34 15 11 13 5 2

Total # of neighbors = 1196795
Ave neighs/atom = 379.694
Ave special neighs/atom = 1.90355
Neighbor list builds = 240
Dangerous builds = 0
PPPM initialization ...
  extracting TIP4P info from pair style
  using 12-bit tables for long-range coulomb (../kspace.cpp:321)
  G vector (1/distance) = 0.310659
  grid = 30 30 30
  stencil order = 5
  estimated absolute RMS force accuracy = 0.00366738
  estimated relative force accuracy = 1.10442e-05
  using double precision FFTs
  3d grid and FFT values/proc = 2475 256
Setting up Verlet run ...
  Unit style    : real
  Current step  : 0
  Time step     : 2
Per MPI rank memory allocation (min/avg/max) = 7.955 | 8.208 | 8.218 Mbytes
Step Temp E_pair E_mol TotEng Press Volume 
       0    298.67837    -20732.09            0   -18817.047    42.928206    32543.329 
   10000    294.80329   -20678.041            0   -18787.845     241.8696    32907.292 
   20000    299.35739    -20551.85            0   -18632.454   -160.68502     32724.61 
   30000    299.69264    -20536.52            0   -18614.974    348.70277    32606.485 
   40000    297.35876   -20604.303            0   -18697.721    262.23457    32806.816 
   50000     299.0545   -20581.003            0   -18663.549    323.96942    32782.776 
   60000    297.68909   -20587.634            0   -18678.934   -478.47066    33036.756 
   70000    300.98824   -20657.999            0   -18728.146   -4.9850409    32887.132 
   80000    295.77355   -20692.942            0   -18796.524    300.50733    32584.638 
   90000    299.82585   -20711.882            0   -18789.482   -780.08595    32756.303 
  100000    304.71476    -20634.47            0   -18680.723   -255.15231    32792.003 
  110000    299.04727   -20695.431            0   -18778.023    762.37731    32401.478 
  120000    295.75269   -20676.315            0   -18780.031    187.97072    32643.451 
  130000    303.40989   -20629.947            0   -18684.567    1158.2065    32331.752 
  140000    292.68091    -20615.02            0   -18738.431    404.53389    32551.144 
  150000     291.4074   -20663.992            0   -18795.569   -227.72292    32465.606 
  160000    294.34551   -20677.961            0     -18790.7   -402.33983     32521.53 
  170000    296.54813   -20631.691            0   -18730.307    1615.3059    32242.427 
  180000    290.06508   -20634.693            0   -18774.876    868.41714     32317.96 
  190000    293.57772   -20624.373            0   -18742.034   -236.37614    32739.508 
  200000    301.55905    -20594.42            0   -18660.907   -344.81012    32784.106 
  210000     306.9229   -20561.762            0   -18593.858    2.6672729    32849.382 
  220000    298.06857   -20659.319            0   -18748.186    169.89214    32682.975 
  230000    310.24779   -20661.108            0   -18671.885   -212.96364    33047.481 
  240000    303.05667   -20546.334            0   -18603.219   -363.30593    32649.418 
  250000    298.11785   -20628.507            0   -18717.058   -517.82566    33002.703 
  260000     302.0981    -20614.42            0   -18677.451    442.33154    32578.919 
  270000    292.09815   -20572.136            0   -18699.283   -25.867544    32213.854 
  280000    292.94836   -20639.494            0   -18761.191   -472.94618    33203.928 
  290000    305.02184   -20593.221            0   -18637.505    125.35771    32507.319 
  300000    286.51074   -20509.186            0   -18672.159   -26.188556    32823.306 
  310000    298.42223   -20596.395            0   -18682.995    396.00675    32876.641 
  320000    304.79334   -20702.571            0    -18748.32   -365.41472     32731.94 
  330000    301.48101   -20686.822            0    -18753.81     511.5588    32325.843 
  340000    301.91413    -20678.92            0    -18743.13    664.82085    32490.204 
  350000    297.30492   -20554.448            0   -18648.212   -643.12994     32968.74 
  360000    296.31961   -20668.061            0   -18768.142    751.89043    32637.082 
  370000    295.11993   -20583.652            0   -18691.425   -181.19574    32758.752 
  380000    294.68692   -20562.978            0   -18673.527   -897.99564    33044.476 
  390000    298.55129   -20597.927            0   -18683.699   -358.38146    32730.441 
  400000    291.08568   -20649.411            0   -18783.051     38.75993     32644.58 
  410000    297.00506   -20654.191            0   -18749.877    545.28308    32495.959 
  420000    292.33657   -20680.172            0   -18805.791   -569.08989    32492.019 
  430000    298.69942   -20581.802            0   -18666.624   -530.35369     32738.72 
  440000    304.63435   -20605.385            0   -18652.154    874.90868    32384.399 
  450000    298.98097   -20653.978            0   -18736.995   -625.71223    32688.712 
  460000    298.94366   -20584.842            0   -18668.098    494.17538    32838.865 
  470000    304.56596   -20645.908            0   -18693.116    10.898451    32670.668 
  480000    298.26452   -20634.232            0   -18721.842    1172.3092    32440.703 
  490000    298.53325   -20627.351            0   -18713.239   -239.50755    32663.976 
  500000    296.50332   -20699.135            0   -18798.038   -508.52734    32489.197 
  510000     290.5517   -20642.961            0   -18780.024    570.22088     32447.52 
  520000    294.03052    -20670.86            0   -18785.618   -592.11999    32580.352 
  530000     299.7313    -20604.76            0   -18682.966    228.03934    32590.359 
  540000    297.44895    -20643.46            0     -18736.3   -756.00241    32949.308 
  550000    299.32267   -20632.058            0   -18712.884    314.50734    32517.714 
  560000    298.02776   -20649.242            0   -18738.371    157.79469    32446.852 
  570000    298.50626   -20721.427            0   -18807.488   -319.98119    32383.976 
  580000    309.09447   -20573.966            0   -18592.138    -733.9189    32886.488 
  590000    291.95685   -20604.591            0   -18732.645    -58.87056    32603.867 
  600000    305.70222   -20618.708            0    -18658.63    475.69708    32324.472 
  610000    295.42774   -20688.274            0   -18794.074   -41.869795    32591.735 
  620000    301.38369   -20656.703            0   -18724.314   -870.12952     32717.97 
  630000    301.05975   -20693.288            0   -18762.977    572.96801     32440.02 
  640000    291.03794   -20583.477            0   -18717.423   -888.01944    32709.356 
  650000    293.01933   -20659.209            0   -18780.451    146.53112    32637.891 
  660000    299.51714   -20725.992            0   -18805.571   -396.00332    32375.173 
  670000    301.99572   -20558.252            0    -18621.94   -218.62511    32407.718 
  680000    298.79221   -20645.731            0   -18729.958    278.97433    32603.806 
  690000     293.9403   -20669.075            0   -18784.412    437.27714    32539.369 
  700000    294.81771   -20699.593            0   -18809.304   -1.0381889     32645.06 
  710000    298.48787   -20632.395            0   -18718.574    -248.6357    32618.803 
  720000     308.5686   -20566.927            0   -18588.471    27.201331    32727.905 
  730000    296.29983   -20601.714            0   -18701.921    -197.4752    32703.759 
  740000     300.1929    -20594.28            0   -18669.526   -244.04369    32739.917 
  750000    291.08073   -20621.314            0   -18754.986    681.98012    32591.952 
  760000    294.56056   -20719.515            0   -18830.874    -142.0047    32653.164 
  770000    300.92767   -20702.185            0    -18772.72    152.13369    32578.968 
  780000    292.72778   -20657.516            0   -18780.626    499.64568     31997.39 
  790000    301.14254   -20604.164            0   -18673.322    407.83653    32642.377 
  800000    303.56696   -20625.114            0   -18678.727   -483.89995    32692.132 
  810000    299.77871   -20722.599            0   -18800.501    998.41342    32326.605 
  820000    293.67908   -20667.012            0   -18784.024   -1034.4554    32441.272 
  830000    294.70826   -20692.216            0   -18802.629   -148.33513    32735.328 
  840000    295.72108    -20620.55            0   -18724.468    458.64593    32088.065 
  850000    293.49664   -20575.156            0   -18693.337   -654.30778    33125.824 
  860000    298.26595   -20584.632            0   -18672.234   -1172.1893    33257.385 
  870000    296.40788   -20590.035            0    -18689.55    263.95826    32597.852 
  880000    306.01935   -20653.255            0   -18691.144    350.21046    32623.116 
  890000    285.78151   -20594.239            0   -18761.887    756.63827    32373.976 
  900000    292.76436   -20561.898            0   -18684.774   -1103.6825    33227.417 
  910000    300.69657   -20645.767            0   -18717.784   -650.16034    32896.775 
  920000    300.29053   -20734.772            0   -18809.392    351.13143    32782.237 
  930000    297.42091   -20566.587            0   -18659.607   -989.73968    32924.373 
  940000    302.84474   -20606.638            0   -18664.882    271.83167    32629.797 
  950000    300.86517   -20636.639            0   -18707.575   -264.05683    32852.774 
  960000    291.58674   -20681.393            0    -18811.82   -71.688895    32610.821 
  970000    296.26918   -20524.607            0   -18625.011   -156.62984    33267.778 
  980000    305.30814   -20626.357            0   -18668.806    189.35552    32378.288 
  990000    286.56741   -20630.066            0   -18792.675    809.24416    32927.632 
 1000000    295.54097   -20653.276            0   -18758.349    259.60745    32804.385 
 1010000    296.37986   -20632.275            0    -18731.97    -791.3236    32516.382 
 1020000    301.02759   -20713.673            0   -18783.567   -307.24931    32713.307 
 1030000    297.85951   -20563.821            0   -18654.028    681.20644     32406.55 
 1040000    305.52181   -20711.343            0   -18752.422     440.0352    32591.659 
 1050000    293.57324   -20644.531            0   -18762.221    838.28804    32564.876 
 1060000    294.04844   -20620.286            0   -18734.929   -958.79347    32910.965 
 1070000    302.51145     -20587.3            0    -18647.68    20.125198    32539.186 
 1080000    291.69552    -20678.55            0   -18808.279    54.586531    32476.694 
 1090000     310.2755   -20644.898            0   -18655.497   -397.28202    32414.542 
 1100000    307.60186   -20663.204            0   -18690.946    413.79174    32885.515 
 1110000    304.25295   -20618.928            0   -18668.143   -615.26292    33127.067 
 1120000    295.22363   -20650.635            0   -18757.743   -831.05104    33164.513 
 1130000    303.39324   -20736.212            0   -18790.938   -12.312189    32459.353 
 1140000    298.12643    -20685.34            0   -18773.836    261.53965    32451.509 
 1150000    300.21747   -20696.374            0   -18771.463   -616.47895    32775.982 
 1160000    309.85865   -20677.824            0   -18691.097    834.64407    32385.687 
 1170000    305.01818   -20582.773            0   -18627.081   -348.21017    32724.536 
 1180000    302.07014   -20662.171            0   -18725.381   -313.57892    32862.085 
 1190000    303.95333    -20590.04            0   -18641.176    705.37828    32263.533 
 1200000    302.08687   -20693.137            0    -18756.24    392.72016    32479.975 
 1210000    302.21703   -20606.254            0   -18668.522    496.48535    32729.915 
 1220000    297.41596   -20577.729            0   -18670.781    107.86373    32384.637 
 1230000    300.37377   -20640.082            0   -18714.169   -914.51042    32671.732 
 1240000    294.98578   -20580.114            0   -18688.747    743.54523    32390.949 
 1250000    299.47611   -20601.704            0   -18681.546     383.0628    32135.749 
 1260000    294.26219   -20665.201            0   -18778.473   -372.14498    32919.883 
 1270000     291.3539   -20601.696            0   -18733.616    673.40609    32277.748 
 1280000    297.09565   -20692.828            0   -18787.934    154.34089    32453.212 
 1290000    297.82507   -20637.353            0   -18727.782    220.49922    32400.213 
 1300000    293.31928   -20662.334            0   -18781.653   -19.565786    32522.511 
 1310000    294.89973   -20575.765            0    -18684.95   -1208.9152    33326.634 
 1320000    304.94382   -20580.568            0   -18625.353   -375.14888    32887.751 
 1330000    302.49266   -20535.381            0   -18595.882   -306.60694    32823.103 
 1340000    296.83315   -20573.694            0   -18670.482    175.94691    32751.751 
 1350000    298.66283   -20740.456            0   -18825.513    332.25081    33012.783 
 1360000    295.67969   -20604.317            0   -18708.501   -708.50418    32666.017 
 1370000    302.42563   -20577.403            0   -18638.334   -436.81795    32957.556 
 1380000    300.23276   -20527.195            0   -18602.186   -339.39116    32487.986 
 1390000    294.96093   -20616.266            0   -18725.058   -379.62125    32934.966 
 1400000     296.9609   -20680.583            0   -18776.552   -233.65874    32775.824 
 1410000     300.9974   -20609.089            0   -18679.177   -207.84696    33098.031 
 1420000    298.35415   -20713.192            0   -18800.228    792.35645     32197.62 
 1430000    300.71592   -20627.347            0    -18699.24   -504.61809      33003.6 
 1440000    305.47715   -20651.086            0   -18692.451    -306.0206    32857.198 
 1450000    298.03097   -20567.794            0   -18656.902    -290.7332    32777.005 
 1460000    300.54433    -20767.26            0   -18840.253    198.61182    32454.959 
 1470000    296.96836   -20600.262            0   -18696.183    96.677444    32743.578 
 1480000    304.84647   -20716.409            0   -18761.818    968.79306    32432.236 
 1490000     304.1696   -20629.993            0   -18679.742    1048.0747     32754.37 
 1500000    297.74466   -20674.145            0   -18765.089     575.9209    32309.949 
 1510000    295.87239   -20643.782            0   -18746.731    62.945958    32703.014 
 1520000    300.35998   -20629.411            0   -18703.586   -43.420986    32171.236 
 1530000    290.65217   -20640.772            0   -18777.191    290.45288    32385.165 
 1540000    299.14846   -20651.767            0    -18733.71    244.72004    32899.176 
 1550000    301.10958   -20612.287            0   -18681.656    595.29074    32816.251 
 1560000    293.54982   -20714.212            0   -18832.052   -422.14994    32707.735 
 1570000    300.85672   -20592.591            0   -18663.581   -538.49992    32736.281 
 1580000     305.9047   -20666.835            0   -18705.459    176.27208    32791.942 
 1590000    302.00839   -20707.482            0   -18771.088   -187.15202    32381.126 
 1600000    303.08371    -20616.34            0   -18673.051   -133.97156     32656.32 
 1610000    298.21185   -20622.753            0   -18710.702   -171.24606    32764.035 
 1620000    306.29745   -20669.186            0   -18705.292    27.213365    32693.912 
 1630000    298.53407   -20618.509            0   -18704.391   -111.90176    32550.675 
 1640000    303.03335   -20730.325            0    -18787.36   -45.184361    32423.249 
 1650000    301.58057   -20655.498            0   -18721.847   -78.628991    32688.755 
 1660000    302.62415    -20695.77            0   -18755.428   -1318.6843    32675.531 
 1670000    301.46176    -20616.61            0   -18683.721       785.33    32205.312 
 1680000    303.53235    -20520.07            0   -18573.904   -6.6870103    32823.925 
 1690000    293.75293   -20639.793            0   -18756.331     870.0586    32797.967 
 1700000    304.19566   -20643.065            0   -18692.647   -210.86652    32498.483 
 1710000      296.653   -20614.951            0   -18712.894     320.1186    32478.106 
 1720000     291.7685   -20603.295            0   -18732.557   -383.25176    32929.515 
 1730000    293.74731   -20704.363            0   -18820.937   -77.456252    32560.117 
 1740000    296.23311   -20665.969            0   -18766.605   -679.21095    32813.827 
 1750000    300.97348   -20690.556            0   -18760.798    87.715189    32414.512 
 1760000    290.35922   -20606.583            0   -18744.881   -423.60258    32551.437 
 1770000    296.62258   -20600.735            0   -18698.873   -307.26598    32897.587 
 1780000    299.49451   -20699.499            0   -18779.223    93.433082    32762.298 
 1790000    304.35548   -20687.163            0   -18735.721    289.99642    32500.094 
 1800000    300.37858     -20638.9            0   -18712.956   -165.54169    32588.979 
 1810000    314.18939   -20673.375            0    -18658.88     655.9488    32419.773 
 1820000     299.3994   -20703.791            0   -18784.125   -464.79339     32879.11 
 1830000    294.13396   -20637.166            0   -18751.261    124.59431    32691.215 
 1840000    294.05679    -20573.22            0    -18687.81   -386.66698    32382.689 
 1850000    295.44925   -20600.706            0   -18706.368    468.38004    32584.638 
 1860000    295.30887   -20590.903            0   -18697.465   -839.68193    32768.797 
 1870000    295.68993   -20673.523            0   -18777.641   -26.152289    33167.793 
 1880000    298.12075   -20586.032            0   -18674.565   -55.591184    32588.679 
 1890000    293.28753   -20635.695            0   -18755.217   -587.72403    32208.748 
 1900000     296.6589   -20706.457            0   -18804.362      377.091    32267.066 
 1910000    289.00102   -20634.788            0   -18781.794    479.13275    32619.244 
 1920000    299.22467   -20645.495            0   -18726.949    432.18282    32111.339 
 1930000    296.95831   -20518.434            0    -18614.42   -662.33554    33157.908 
 1940000    302.09703   -20575.994            0   -18639.031   -26.265773    32507.219 
 1950000    292.79847   -20666.269            0   -18788.926    716.72475    32247.054 
 1960000    305.10787   -20707.258            0   -18750.991    738.57798    32520.372 
 1970000    306.56566    -20635.83            0   -18670.216    -691.4917    32888.565 
 1980000    299.44692   -20564.482            0   -18644.512   -187.93863    32952.899 
 1990000    288.10588   -20608.691            0   -18761.436    67.883382    32698.569 
 2000000    299.50348   -20662.106            0   -18741.773   -322.62678    32758.646 
 2010000    298.66122   -20614.153            0    -18699.22     495.6455    32672.155 
 2020000    305.06993   -20646.008            0   -18689.985    1416.5991     32281.14 
 2030000    297.59311   -20642.388            0   -18734.304   -208.40515    32788.468 
 2040000    291.44045   -20609.689            0   -18741.053     976.7268    32200.915 
 2050000    306.82276    -20632.75            0   -18665.488   -264.55315    32402.538 
 2060000     295.6507   -20600.811            0   -18705.181   -768.44767    33193.741 
 2070000    302.59223    -20559.83            0   -18619.692    220.18693    32900.911 
 2080000    300.31832    -20546.85            0   -18621.292    617.07983    32389.843 
 2090000    296.18602   -20579.136            0   -18680.074   -509.70465    32574.746 
 2100000    293.69585    -20644.94            0   -18761.844    161.57408    32868.205 
 2110000    303.29974   -20699.831            0   -18755.157   -494.93737    32528.301 
 2120000    289.20376   -20556.455            0   -18702.161   -219.14223    32813.215 
 2130000    297.60399   -20671.014            0   -18762.859    326.73796    32553.978 
 2140000    295.60281    -20636.18            0   -18740.857   -86.868507    32959.394 
 2150000      296.881   -20696.393            0   -18792.874   -426.10299    32652.535 
 2160000    301.86339   -20562.952            0   -18627.488    284.26979    32591.558 
 2170000    297.75614   -20648.143            0   -18739.014    101.90661    32496.518 
 2180000     299.5357   -20651.939            0   -18731.399    -439.4665    32722.472 
 2190000    307.57765   -20604.744            0   -18632.642   -242.55276    32784.188 
 2200000    289.89182   -20671.329            0   -18812.623    164.27346     32428.12 
 2210000    297.85998   -20617.231            0   -18707.436     -233.967    32763.318 
 2220000    292.89578    -20687.34            0   -18809.373    -223.0188    32545.796 
 2230000    295.45503   -20555.365            0    -18660.99   -772.49678    32765.177 
 2240000     287.3869   -20576.679            0   -18734.034    337.72279    32330.169 
 2250000    301.21643   -20606.174            0   -18674.858    728.11182    32460.112 
 2260000    299.20193   -20652.908            0   -18734.508    72.296647    32188.955 
 2270000    296.42929   -20516.003            0   -18615.381   -172.77822    32827.008 
 2280000    300.36596   -20566.591            0   -18640.728    32.384849     32628.69 
 2290000    286.60174   -20610.803            0   -18773.192    329.80391    32649.587 
 2300000    297.26641    -20614.56            0    -18708.57    270.02525    32365.955 
 2310000    295.48981   -20611.669            0    -18717.07    679.63929    32862.367 
 2320000    301.18702   -20732.853            0   -18801.726    408.53174    32564.401 
 2330000    297.49815   -20653.055            0   -18745.579   -345.82384    32491.822 
 2340000    287.02024   -20728.926            0   -18888.632   -839.74903    32686.772 
 2350000     295.1327   -20649.953            0   -18757.644   -449.84111    32975.478 
 2360000    297.16686   -20607.525            0   -18702.174    -1063.949    32707.928 
 2370000    288.52569   -20640.344            0   -18790.397     513.6374    32772.234 
 2380000    294.61949   -20634.109            0    -18745.09    1184.6519    32574.876 
 2390000    295.52079   -20689.799            0   -18795.001    206.00686    32538.126 
 2400000    290.89244    -20644.41            0   -18779.288    55.483026    32292.603 
 2410000    305.19422   -20683.145            0   -18726.324    1143.6891    31998.894 
 2420000    297.73557   -20644.156            0   -18735.158   -343.75324    32901.827 
 2430000    300.56057   -20712.085            0   -18784.974   -414.22042    32832.974 
 2440000    293.49086   -20526.231            0   -18644.449    36.679625    33039.092 
 2450000    297.46993   -20615.028            0   -18707.733    401.36133    32897.636 
 2460000    290.71017   -20714.911            0   -18850.958   -166.75073    33191.367 
 2470000    296.47419   -20587.735            0   -18686.825   -668.30349    32489.465 
 2480000    293.46043   -20658.058            0   -18776.471    13.494348    32510.717 
 2490000    299.24273   -20580.547            0   -18661.886    382.31967     32717.31 
 2500000    296.80734   -20641.462            0   -18738.416    329.96743    32560.121 
 2510000    294.60857   -20556.067            0   -18667.119   -290.51813    33157.733 
 2520000    303.21203   -20651.943            0   -18707.832   -187.32753    32660.945 
 2530000    296.91264   -20686.089            0   -18782.368   -166.79158    32722.032 
 2540000    302.33288   -20563.716            0   -18625.242    914.48582    32415.678 
 2550000     298.1064   -20563.008            0   -18651.632    -846.9538    32715.547 
 2560000    294.80556   -20565.331            0    -18675.12   -1224.5507    33014.401 
 2570000    292.59497    -20651.34            0   -18775.302   -102.99446    32514.999 
 2580000    302.38303   -20641.777            0   -18702.981   -309.14278    32473.606 
 2590000    301.48567   -20582.234            0   -18649.191   -151.47057    32653.097 
 2600000     296.3001   -20498.762            0   -18598.968    311.90978    32441.161 
 2610000    297.88209   -20623.835            0   -18713.898   -152.58693    32758.223 
 2620000    305.29989   -20561.926            0   -18604.428   -548.00182    32710.636 
 2630000    291.61305    -20631.32            0   -18761.578     563.8346    32812.755 
 2640000    298.88598   -20732.209            0   -18815.836    1011.3284    32420.414 
 2650000    294.79659   -20668.319            0   -18778.165   -148.39048    32502.904 
 2660000    296.34014   -20568.759            0   -18668.708    533.49391    32368.301 
 2670000     299.4637   -20570.089            0   -18650.011   -96.650039    32537.544 
 2680000    309.46478   -20622.226            0   -18638.024   -657.78185    32590.719 
 2690000    297.37708   -20767.702            0   -18861.002   -38.560343     32353.74 
 2700000    292.47441    -20598.29            0   -18723.025    296.87891    32714.098 
 2710000    302.26629   -20687.186            0   -18749.138    587.44838     32306.03 
 2720000    297.53795   -20676.552            0   -18768.821    486.33197    32575.141 
 2730000    299.74796   -20568.321            0    -18646.42   -593.71684    32758.383 
 2740000    297.37557   -20630.082            0   -18723.392    617.68894    32318.436 
 2750000    287.97815   -20630.393            0   -18783.957    267.22934    32328.315 
 2760000    293.83553   -20605.829            0   -18721.838   -599.18344    32918.935 
 2770000    291.53421   -20624.939            0   -18755.703   -427.69947    32565.229 
 2780000    295.51632   -20678.943            0   -18784.174   -500.71931    32608.072 
 2790000    307.98903   -20674.137            0   -18699.397    525.06624    32952.531 
 2800000    291.42564   -20645.155            0   -18776.614    454.01111     32208.08 
 2810000    292.36532   -20620.429            0   -18745.864    33.395178     32437.11 
 2820000    310.83628   -20599.011            0   -18606.015    84.429983    32818.962 
 2830000    303.65589   -20730.847            0    -18783.89   -301.22343    32749.748 
 2840000    297.97174   -20618.534            0   -18708.022   -733.52632    32756.308 
 2850000    291.95176   -20701.349            0   -18829.435    1013.4677    32535.347 
 2860000    293.56063   -20663.535            0   -18781.306    102.00506    32501.976 
 2870000     294.6495   -20598.777            0   -18709.566    281.87183    32597.381 
 2880000    291.78464   -20645.731            0   -18774.889   -197.15665    32784.794 
 2890000    295.73698   -20648.787            0   -18752.603   -67.200635    32538.177 
 2900000    304.27631   -20691.565            0   -18740.629   -922.53831    32836.232 
 2910000    287.66158   -20654.126            0    -18809.72   -844.65137    33123.363 
 2920000    306.83735   -20678.317            0   -18710.961   -107.44879     32477.53 
 2930000    298.13314   -20617.903            0   -18706.356   -206.02186    32717.983 
 2940000    294.81029   -20639.455            0   -18749.214   -574.27764    33138.051 
 2950000    297.46524   -20673.776            0   -18766.512   -151.40683    32174.366 
 2960000    292.21283   -20637.648            0    -18764.06   -713.38135    32692.045 
 2970000    293.22671   -20665.152            0   -18785.063   -670.37078     33052.92 
 2980000    297.31462    -20687.16            0   -18780.862    522.94843    32428.981 
 2990000    291.88456   -20603.212            0    -18731.73   -89.839766    32717.113 
 3000000    296.83151   -20655.838            0   -18752.637    357.17563    32468.698 
 3010000    298.95065   -20576.354            0   -18659.565    -301.6226     32595.48 
 3020000    298.29303   -20602.284            0   -18689.712   -146.44365    32930.812 
 3030000    302.92985   -20615.059            0   -18672.757    114.54126    32453.378 
 3040000     293.4761    -20575.65            0   -18693.963   -333.84834     32685.99 
 3050000    305.09011   -20621.497            0   -18665.344    914.91429    32248.833 
 3060000    300.37834   -20614.626            0   -18688.683    137.66628    32829.569 
 3070000    286.89448   -20642.352            0   -18802.865    60.153554    32498.677 
 3080000    296.04382   -20609.656            0   -18711.505   -655.82704    32624.275 
 3090000    306.22127   -20664.432            0   -18701.026    52.200399    32818.667 
 3100000    300.78069   -20667.313            0   -18738.791   -258.27565    32975.043 
 3110000    301.46588   -20666.852            0   -18733.936    464.67891    32745.259 
 3120000    290.25201   -20555.285            0    -18694.27   -160.39154    32967.973 
 3130000    302.32063   -20520.422            0   -18582.026    370.99607    33029.767 
 3140000    295.03091   -20532.779            0   -18641.122    117.45396    32558.611 
 3150000    288.88454   -20636.384            0   -18784.137    -276.3364    32684.779 
 3160000    308.22522   -20645.723            0   -18669.468   -671.40913    33117.314 
 3170000    294.61741   -20584.678            0   -18695.673    321.15638    32404.801 
 3180000    297.68615   -20602.599            0   -18693.918    936.02581    32433.883 
 3190000    296.81773   -20664.485            0   -18761.372    117.66814    32630.084 
 3200000     302.9286   -20667.037            0   -18724.742    698.10916    32613.681 
 3210000    297.65173   -20672.122            0   -18763.662     593.7977    32271.005 
 3220000    295.24475    -20654.59            0   -18761.562   -130.52659    32742.995 
 3230000    307.15719    -20683.42            0   -18714.013    -286.6228    32388.717 
 3240000    287.16088   -20610.419            0   -18769.223    64.560759    32591.763 
 3250000    287.39994   -20600.434            0   -18757.705   -285.04447     33234.14 
 3260000    291.78376   -20686.882            0   -18816.045   -22.329134    32573.001 
 3270000    293.67518   -20624.996            0   -18742.032    347.38853    32221.427 
 3280000    299.05705   -20623.613            0   -18706.142    932.51615    32303.138 
 3290000     299.2438   -20582.082            0   -18663.414   -233.57091    33112.764 
 3300000    298.27019   -20529.333            0   -18616.908   -207.40378    32830.112 
 3310000    310.37293    -20634.83            0   -18644.805    342.34251    32812.778 
 3320000    298.69045   -20738.346            0   -18823.226    214.83949    32522.075 
 3330000    303.55136   -20634.611            0   -18688.324   -922.16633    33043.658 
 3340000    303.13691   -20624.328            0   -18680.698    641.30806    32322.624 
 3350000    300.67415   -20594.394            0   -18666.555    147.37955    32236.993 
 3360000    297.06766   -20600.909            0   -18696.194   -90.030879    32441.846 
 3370000    294.24059   -20689.028            0   -18802.439   -376.82695    32985.973 
 3380000     302.8609   -20655.241            0   -18713.381   -717.87052    32603.918 
 3390000    301.46733   -20685.782            0   -18752.857    409.20113    32497.286 
 3400000     306.3475   -20615.911            0   -18651.696    16.766467    32809.481 
 3410000    296.70859   -20619.224            0    -18716.81    752.79416    32691.502 
 3420000    295.24437   -20640.813            0   -18747.788    77.019428    32835.926 
 3430000    305.17146   -20704.125            0    -18747.45    181.19535    32495.784 
 3440000    298.62733   -20639.479            0   -18724.763   -612.20159    32804.262 
 3450000    301.34439   -20582.981            0   -18650.845   -413.38076    32986.733 
 3460000    302.23268   -20640.391            0   -18702.558    722.96146    32292.542 
 3470000    288.41392   -20705.903            0   -18856.673    542.91391    32217.907 
 3480000    298.50064   -20621.545            0   -18707.641    400.50005    32460.881 
 3490000    301.87585   -20624.539            0   -18688.995    800.26947    32577.772 
 3500000    297.51031   -20683.578            0   -18776.024    83.336679    32502.215 
 3510000    297.61543    -20626.28            0   -18718.053    87.823729     32320.37 
 3520000    307.07339   -20652.648            0   -18683.779    88.083016    32779.613 
 3530000    299.00476   -20490.296            0   -18573.161   -231.89385    32831.544 
 3540000    297.35102   -20723.062            0    -18816.53    409.72914     32532.31 
 3550000    289.84878   -20576.448            0   -18718.018    -403.4413    32859.217 
 3560000    294.33871   -20570.972            0   -18683.754     371.0457    32884.287 
 3570000    300.06974   -20629.788            0   -18705.824    16.286259    32878.486 
 3580000    298.11371   -20702.041            0   -18790.619   -159.01529    32410.395 
 3590000     299.1933   -20685.617            0   -18767.272    96.692258    32230.969 
 3600000    291.08282   -20618.117            0   -18751.774   -113.19897    32471.025 
 3610000    295.90249    -20685.35            0   -18788.105   -219.39112    32468.349 
 3620000    292.31516   -20709.219            0   -18834.975    33.666079    32579.884 
 3630000     303.6306   -20580.621            0   -18633.826   -1345.8652    33226.341 
 3640000    294.45493   -20635.505            0   -18747.541    442.87372    32364.457 
 3650000    295.81944    -20665.35            0   -18768.638    -530.7098    32801.766 
 3660000    297.63189   -20659.413            0   -18751.079   -29.919971    32572.693 
 3670000    290.95233   -20686.631            0   -18821.126    386.23595    32457.292 
 3680000     300.9222   -20666.582            0   -18737.152    198.94928    32558.425 
 3690000    298.89999   -20638.765            0   -18722.301    356.01476    32462.963 
 3700000    294.49754   -20642.198            0   -18753.962   -268.33151    32712.401 
 3710000    311.81627   -20535.081            0   -18535.802   -435.33185    33043.869 
 3720000    303.73344   -20618.334            0   -18670.879   -945.83165    32844.099 
 3730000    302.75512   -20680.937            0   -18739.755    58.158493    32746.372 
 3740000    310.94701   -20703.247            0   -18709.541    354.28067    32592.258 
 3750000    302.23737    -20630.51            0   -18692.648    494.52745     32233.75 
 3760000    289.41356   -20505.154            0   -18649.515   -30.699677    32524.739 
 3770000    300.24098   -20640.857            0   -18715.795    21.346858    32384.052 
 3780000    294.35812    -20553.04            0   -18665.697   -277.23801    32796.485 
 3790000    298.52601   -20519.195            0    -18605.13    428.50629    32764.807 
 3800000    304.39197   -20667.364            0   -18715.687    164.83222    32780.645 
 3810000    301.63349   -20735.094            0   -18801.103    361.26258     32692.93 
 3820000    296.66863   -20651.052            0   -18748.895   -795.04471    32744.617 
 3830000    294.08676    -20704.53            0   -18818.927    512.75381    32237.215 
 3840000    301.40131   -20629.558            0   -18697.056    251.01658    32879.368 
 3850000    290.87723   -20679.399            0   -18814.375   -374.16803    32843.768 
 3860000     296.9365   -20592.729            0   -18688.855   -471.02206    32950.208 
 3870000    294.98252   -20684.896            0    -18793.55     664.3179    32536.137 
 3880000    297.67934   -20614.151            0   -18705.514   -46.738064    33092.208 
 3890000    287.66713   -20573.982            0   -18729.541    435.97515    32642.843 
 3900000    300.36091   -20598.758            0   -18672.927    158.71661    32582.574 
 3910000    302.29065   -20570.066            0   -18631.863    -119.4142    32685.679 
 3920000     291.8665   -20658.209            0   -18786.842    336.99305    32714.144 
 3930000    303.23823   -20564.957            0   -18620.678    1454.8432    31826.992 
 3940000     300.4132   -20614.691            0   -18688.525   -22.399117    32810.184 
 3950000     295.0911   -20625.269            0   -18733.227   -604.66022     32786.32 
 3960000    295.84398    -20612.53            0    -18715.66   -263.24763    32593.733 
 3970000    302.54273   -20667.182            0   -18727.362   -1069.8506    32862.251 
 3980000    292.26356   -20504.384            0   -18630.471    391.80783    32916.331 
 3990000    299.88652    -20606.27            0   -18683.481    458.15698    32400.672 
 4000000    294.62976   -20566.259            0   -18677.175   -124.91864    32510.301 
 4010000     295.2956   -20575.768            0   -18682.414   -56.168361    32644.884 
 4020000    288.34731   -20631.511            0   -18782.709    1.8397816    32565.515 
 4030000    292.62872   -20575.935            0   -18699.681    -5.868515    32662.438 
 4040000    297.64232   -20593.635            0   -18685.235   -278.10878    32698.083 
 4050000    298.69848   -20585.888            0   -18670.716   -666.67745    32863.776 
 4060000    297.96277   -20623.693            0   -18713.238   -471.08633    32398.281 
 4070000    305.61831   -20676.172            0   -18716.633    -1186.564    32929.297 
 4080000    303.19984   -20650.112            0   -18706.079    269.72355    32682.565 
 4090000    291.83904   -20678.317            0   -18807.126    735.88618    32530.736 
 4100000    293.16318   -20673.434            0   -18793.753   -196.40535    32673.838 
 4110000      298.419   -20606.724            0   -18693.344   -551.78425      32740.4 
 4120000    304.20077   -20616.914            0   -18666.463     521.6398    32378.757 
 4130000    298.80383   -20697.354            0   -18781.507    301.45928    32602.384 
 4140000    299.72666   -20639.018            0   -18717.254    -140.1255    32633.262 
 4150000    302.42784   -20559.591            0   -18620.507   -495.12677    32782.696 
 4160000    296.71548   -20676.962            0   -18774.505   -387.12137    32747.589 
 4170000    293.20626   -20636.774            0   -18756.817   -194.12903    32407.892 
 4180000    291.67719   -20615.894            0   -18745.741   -162.16897    32560.947 
 4190000    302.87504   -20638.753            0   -18696.802    129.61411    32360.778 
 4200000    294.12233   -20837.846            0   -18952.016   -24.778713    32967.408 
 4210000    288.41913   -20595.747            0   -18746.484    104.28378    32775.277 
 4220000    301.15804   -20608.341            0     -18677.4    280.67383    32405.522 
 4230000    308.69927   -20660.825            0   -18681.531    501.84827    32520.425 
 4240000    293.62026   -20716.005            0   -18833.393   -193.99284    32742.938 
 4250000    296.67478   -20641.088            0   -18738.892   -668.94777    32974.411 
 4260000    297.40875   -20734.911            0   -18828.009   -100.49227    32876.046 
 4270000    294.66104   -20575.444            0   -18686.159   -173.33632    32885.776 
 4280000    300.37946   -20668.658            0   -18742.708   -354.93143    32690.972 
 4290000    290.70297   -20668.108            0   -18804.202   -655.51605    32590.479 
 4300000    303.64596   -20578.745            0   -18631.851   -220.35377    32783.615 
 4310000    288.88067   -20651.946            0   -18799.723   -215.18913    32611.954 
 4320000    302.22956   -20556.618            0   -18618.806     673.1175    32477.127 
 4330000    293.54218    -20571.22            0   -18689.109   -117.02363    32578.196 
 4340000    302.82225   -20661.887            0   -18720.275    441.66929    32321.296 
 4350000    304.18402   -20593.937            0   -18643.594   -775.49465    32935.716 
 4360000    297.51013   -20611.399            0   -18703.847   -260.20279    32604.587 
 4370000    297.87645   -20657.416            0   -18747.515   -174.48815    32468.801 
 4380000    304.05386   -20553.531            0   -18604.022   -402.50656    33098.224 
 4390000    303.03781   -20647.922            0   -18704.927   -17.247481    32447.118 
 4400000    293.42275   -20654.337            0   -18772.992   -616.61896    32923.069 
 4410000    292.16969   -20618.933            0   -18745.622     53.15709    32832.225 
 4420000    300.80598   -20604.686            0   -18676.001    -405.9687    32795.181 
 4430000    300.07964   -20624.062            0   -18700.035   -92.527384    32846.727 
 4440000    301.01195   -20582.731            0   -18652.726  -0.26041741    32711.297 
 4450000    298.68644   -20630.902            0   -18715.807    171.18206    32980.687 
 4460000    296.26475   -20702.444            0   -18802.877   -35.947637    32366.629 
 4470000    310.96246   -20631.326            0   -18637.522    254.96545    32448.806 
 4480000    291.19546   -20693.658            0   -18826.594   -585.43995    32666.136 
 4490000    294.38531   -20609.096            0   -18721.579    -628.7294    32685.065 
 4500000    289.48501   -20679.934            0   -18823.836   -19.905666     32500.24 
 4510000    302.88601   -20608.804            0   -18666.782   -620.13632    32823.186 
 4520000    288.16375   -20692.286            0    -18844.66    609.49409    32323.673 
 4530000    294.10403   -20588.071            0   -18702.358    510.42573    32487.027 
 4540000    298.63976   -20747.373            0   -18832.578    1228.0937    32518.036 
 4550000    303.96865   -20663.751            0   -18714.788   -221.49715    32654.466 
 4560000    294.47696   -20567.848            0   -18679.743    285.87156    32935.032 
 4570000    299.52585   -20782.017            0   -18861.541    16.535781    32367.178 
 4580000    301.05473   -20623.146            0   -18692.866    519.86187    32548.213 
 4590000    288.50109   -20623.257            0   -18773.468     243.6015    32873.368 
 4600000    301.46062   -20637.194            0   -18704.312   -195.88131    32712.727 
 4610000    291.13932   -20573.751            0   -18707.047   -321.46989    32682.316 
 4620000    297.50616   -20664.469            0   -18756.942    1168.2473    32098.936 
 4630000    288.78509   -20566.882            0   -18715.273   -425.30628    32645.732 
 4640000    301.83603   -20621.505            0   -18686.216    93.915206    32729.226 
 4650000    297.57277   -20570.066            0   -18662.112    449.55943    32719.188 
 4660000    299.95232   -20649.344            0   -18726.133     209.3583    32680.961 
 4670000    298.70046   -20745.661            0   -18830.476    745.36212    32194.483 
 4680000    300.45046   -20613.588            0   -18687.183    785.36975    32488.144 
 4690000    296.71473    -20505.38            0   -18602.928    237.99904    32156.038 
 4700000    301.27922   -20583.537            0   -18651.818     823.1728    32845.035 
 4710000    302.75295   -20666.593            0   -18725.425    114.20619    32752.457 
 4720000    294.73967   -20555.238            0   -18665.449   -358.33909    32916.096 
 4730000    293.48387   -20601.539            0   -18719.802    433.87534    32685.358 
 4740000    289.68048   -20643.285            0   -18785.934    532.95572    32425.468 
 4750000    300.94067   -20623.975            0   -18694.427    261.86933    32556.035 
 4760000     299.7194   -20610.795            0   -18689.077   -639.70958    32616.249 
 4770000    294.08966    -20631.05            0   -18745.428   -132.61193    32789.783 
 4780000    292.63217   -20605.934            0   -18729.658    48.240047    32835.992 
 4790000    303.11986   -20716.409            0   -18772.889   -472.63513     32962.34 
 4800000    293.17425   -20694.408            0   -18814.656    6.3777429    32735.157 
 4810000    291.16966   -20583.676            0   -18716.777    268.87301    32542.126 
 4820000      299.751   -20563.343            0   -18641.423   -660.58369    32803.337 
 4830000    298.94752   -20588.782            0   -18672.013   -356.48544    32980.018 
 4840000    294.26817    -20665.34            0   -18778.574    1.1366409    32950.818 
 4850000    301.74896   -20599.663            0   -18664.933   -508.27937    32974.362 
 4860000    303.81532   -20599.452            0   -18651.472    222.35518    32661.921 
 4870000    292.01914     -20517.5            0   -18645.154    278.88413    32633.302 
 4880000    299.59562   -20577.907            0   -18656.983   -500.95126      32890.6 
 4890000    297.39106   -20666.569            0    -18759.78    82.843375    32614.246 
 4900000    287.59651   -20618.045            0   -18774.056    856.13329    32595.008 
 4910000     292.2134    -20563.57            0   -18689.978   -299.29913    32794.538 
 4920000    303.61339   -20551.794            0   -18605.109    173.14647    32022.041 
 4930000    297.71025   -20613.559            0   -18704.724    95.125262    32760.497 
 4940000    294.29173   -20626.887            0    -18739.97    75.984383    32472.685 
 4950000    299.19639   -20641.145            0   -18722.781     345.7684    32359.839 
 4960000     297.4749   -20645.188            0   -18737.862   -91.431561    32945.804 
 4970000    297.67408   -20689.934            0   -18781.331    805.14702    32292.449 
 4980000    300.56006   -20517.987            0   -18590.879    476.78552    32840.725 
 4990000    301.84771   -20650.269            0   -18714.905   -745.13078    32683.358 
 5000000    298.58102   -20479.001            0   -18564.582   -648.78258    33129.924 
Loop time of 5219.14 on 128 procs for 5000000 steps with 3152 atoms

Performance: 165.544 ns/day, 0.145 hours/ns, 958.011 timesteps/s
99.4% CPU use with 128 MPI tasks x no OpenMP threads

MPI task timing breakdown:
Section |  min time  |  avg time  |  max time  |%varavg| %total
---------------------------------------------------------------
Pair    | 1181.1     | 1419.2     | 1616.2     | 294.1 | 27.19
Bond    | 0.45906    | 0.57827    | 1.0154     |  11.0 |  0.01
Kspace  | 2117.4     | 2329.9     | 2549.7     | 225.9 | 44.64
Neigh   | 144.72     | 148.61     | 152.79     |  26.3 |  2.85
Comm    | 541.27     | 608.81     | 684.24     | 133.2 | 11.66
Output  | 0.044178   | 0.04492    | 0.04679    |   0.3 |  0.00
Modify  | 526.14     | 630.61     | 678.77     | 140.7 | 12.08
Other   |            | 81.34      |            |       |  1.56

Nlocal:    24.625 ave 33 max 15 min
Histogram: 1 4 6 15 18 36 29 9 8 2
Nghost:    2873.3 ave 2912 max 2836 min
Histogram: 6 7 6 23 24 19 25 10 4 4
Neighs:    9135.11 ave 13168 max 5089 min
Histogram: 2 6 7 18 33 29 17 10 3 3

Total # of neighbors = 1169294
Ave neighs/atom = 370.969
Ave special neighs/atom = 1.90355
Neighbor list builds = 436489
Dangerous builds = 0
PPPM initialization ...
  extracting TIP4P info from pair style
  using 12-bit tables for long-range coulomb (../kspace.cpp:321)
  G vector (1/distance) = 0.31023
  grid = 30 30 30
  stencil order = 5
  estimated absolute RMS force accuracy = 0.00373303
  estimated relative force accuracy = 1.12419e-05
  using double precision FFTs
  3d grid and FFT values/proc = 2475 256
Setting up Verlet run ...
  Unit style    : real
  Current step  : 0
  Time step     : 2
Per MPI rank memory allocation (min/avg/max) = 8.199 | 8.211 | 8.219 Mbytes
Density 
   1.1255855 
    1.124977 
   1.1442795 
   1.1398441 
   1.1488292 
   1.1544655 
    1.149179 
   1.1573567 
   1.1544756 
   1.1555743 
   1.1430208 
   1.1393769 
   1.1326496 
   1.1429488 
    1.133006 
   1.1334591 
   1.1420045 
   1.1416318 
   1.1261593 
   1.1505559 
   1.1387139 
   1.1450516 
   1.1365905 
   1.1381748 
   1.1354865 
   1.1327787 
    1.137083 
   1.1282341 
   1.1421678 
   1.1318619 
   1.1437496 
   1.1349143 
   1.1306758 
   1.1403409 
    1.123401 
   1.1423608 
   1.1384775 
   1.1560774 
   1.1356985 
   1.1363115 
   1.1280248 
   1.1347897 
   1.1369139 
   1.1271973 
   1.1241451 
   1.1371426 
   1.1272553 
   1.1429287 
    1.142217 
    1.131225 
     1.14291 
   1.1355304 
   1.1518208 
   1.1338356 
    1.138117 
   1.1467543 
   1.1586321 
    1.136874 
   1.1458451 
    1.143035 
    1.145739 
   1.1235407 
   1.1388131 
   1.1473438 
   1.1478279 
   1.1250294 
   1.1374983 
   1.1390653 
   1.1375096 
   1.1468588 
   1.1295144 
   1.1358246 
   1.1329355 
   1.1280078 
   1.1512262 
   1.1471769 
   1.1670332 
     1.13239 
   1.1375849 
   1.1339971 
   1.1343897 
   1.1481353 
   1.1296579 
   1.1602753 
   1.1500362 
   1.1472171 
   1.1310819 
    1.143624 
   1.1400183 
   1.1345832 
   1.1283676 
   1.1430557 
   1.1299371 
    1.135931 
   1.1255621 
   1.1350949 
   1.1341447 
   1.1502015 
   1.1376263 
   1.1516035 
   1.1231547 
   1.1431255 
   1.1295641 
   1.1416434 
   1.1450675 
    1.129059 
   1.1258169 
    1.149169 
   1.1506528 
   1.1455326 
   1.1303519 
   1.1337059 
    1.138023 
    1.147616 
   1.1451787 
   1.1618478 
   1.1527407 
   1.1452064 
   1.1511546 
   1.1464802 
   1.1414002 
   1.1525849 
   1.1295929 
   1.1421058 
   1.1509797 
   1.1386522 
    1.141209 
   1.1350558 
   1.1484036 
   1.1376825 
   1.1469413 
   1.1465468 
   1.1435179 
    1.129263 
   1.1397345 
   1.1361293 
   1.1429008 
    1.150308 
   1.1347592 
   1.1420808 
   1.1414964 
   1.1445097 
   1.1467496 
   1.1414468 
   1.1462482 
   1.1507237 
   1.1489148 
   1.1353008 
   1.1346532 
   1.1480935 
   1.1366954 
   1.1413492 
   1.1550819 
   1.1522149 
   1.1485601 
   1.1302151 
    1.143487 
    1.141944 
   1.1530466 
     1.14121 
   1.1383758 
   1.1477902 
   1.1397152 
   1.1338345 
   1.1265744 
   1.1412736 
   1.1397794 
   1.1388466 
   1.1297331 
   1.1466725 
   1.1267785 
    1.135313 
   1.1415013 
   1.1377148 
   1.1345365 
   1.1463721 
   1.1470205 
   1.1379855 
   1.1354856 
    1.140696 
   1.1361541 
   1.1277458 
   1.1489422 
    1.153548 
   1.1427971 
   1.1412984 
   1.1582092 
   1.1484753 
   1.1391316 
   1.1294359 
   1.1446464 
    1.138375 
   1.1514676 
   1.1436527 
   1.1439766 
   1.1439956 
   1.1380667 
   1.1495226 
   1.1360769 
   1.1474404 
   1.1405059 
   1.1474643 
   1.1426487 
   1.1302238 
    1.163327 
   1.1266358 
   1.1310623 
   1.1330664 
   1.1445262 
   1.1401935 
   1.1400556 
   1.1554633 
   1.1402654 
   1.1378067 
   1.1379123 
   1.1492543 
   1.1318226 
    1.144138 
   1.1347713 
   1.1527523 
   1.1542858 
   1.1336105 
   1.1536629 
    1.147654 
   1.1407344 
   1.1401682 
   1.1317152 
   1.1574218 
   1.1407897 
   1.1398692 
   1.1466613 
    1.129618 
   1.1439791 
   1.1338691 
   1.1363263 
   1.1300248 
   1.1448777 
   1.1384223 
   1.1458683 
    1.134663 
   1.1491103 
   1.1373991 
   1.1540293 
   1.1365294 
   1.1343998 
   1.1393204 
   1.1442103 
   1.1459512 
   1.1378227 
   1.1552966 
    1.141233 
   1.1522744 
   1.1490803 
   1.1459838 
   1.1489768 
   1.1316686 
   1.1421639 
   1.1467691 
   1.1350462 
   1.1328589 
   1.1499883 
   1.1375118 
   1.1387642 
   1.1389334 
   1.1427683 
   1.1404493 
   1.1477813 
   1.1379536 
   1.1416828 
   1.1331365 
   1.1483091 
    1.148185 
   1.1435022 
   1.1532956 
   1.1461045 
   1.1491788 
   1.1506469 
   1.1394019 
   1.1393443 
   1.1627425 
    1.125891 
   1.1327112 
   1.1345835 
   1.1360781 
   1.1429946 
   1.1408896 
   1.1351524 
   1.1278128 
   1.1285845 
   1.1456205 
   1.1339452 
   1.1401878 
   1.1528987 
   1.1329549 
   1.1290468 
    1.139233 
   1.1322135 
   1.1270014 
   1.1418692 
   1.1479751 
   1.1486885 
   1.1358296 
   1.1462298 
   1.1376764 
   1.1421582 
    1.160055 
   1.1294959 
    1.153718 
   1.1337068 
   1.1569958 
   1.1384885 
   1.1391849 
   1.1438728 
     1.13292 
   1.1600686 
   1.1355855 
   1.1548267 
   1.1285717 
   1.1353957 
   1.1449684 
   1.1378855 
   1.1459949 
   1.1421207 
   1.1398507 
   1.1225654 
   1.1381032 
   1.1405662 
   1.1500115 
   1.1475804 
   1.1258777 
   1.1419919 
   1.1443709 
   1.1467977 
   1.1331167 
   1.1360977 
   1.1581848 
   1.1353764 
   1.1408226 
    1.135127 
    1.156753 
   1.1412299 
   1.1366048 
   1.1493734 
   1.1473927 
   1.1349947 
   1.1426381 
   1.1287658 
   1.1373432 
   1.1415862 
   1.1387594 
   1.1340119 
   1.1244157 
   1.1288792 
   1.1548886 
   1.1338808 
   1.1373838 
   1.1413018 
   1.1444727 
   1.1385647 
   1.1367489 
   1.1431799 
   1.1410019 
   1.1534679 
   1.1316466 
   1.1369114 
   1.1493521 
   1.1517941 
   1.1378619 
   1.1275383 
    1.138717 
   1.1458324 
   1.1424542 
    1.130168 
   1.1523525 
   1.1495761 
   1.1374877 
   1.1395607 
   1.1392774 
   1.1394773 
   1.1395756 
   1.1454339 
   1.1454782 
   1.1303518 
   1.1251468 
   1.1347628 
   1.1361382 
   1.1301574 
   1.1498559 
   1.1228554 
   1.1414304 
    1.129904 
   1.1311797 
   1.1518228 
   1.1391288 
   1.1313083 
   1.1482534 
   1.1381835 
   1.1441574 
   1.1390883 
   1.1459721 
   1.1479162 
   1.1305309 
   1.1479567 
   1.1419339 
   1.1411958 
   1.1392971 
   1.1276332 
   1.1371018 
   1.1579684 
   1.1516253 
   1.1541376 
   1.1208255 
   1.1461003 
   1.1445669 
   1.1534777 
   1.1350988 
   1.1398234 
   1.1281375 
   1.1529584 
   1.1245142 
   1.1327757 
   1.1439352 
   1.1376818 
   1.1518609 
   1.1449319 
    1.125552 
   1.1468887 
   1.1538195 
   1.1368583 
   1.1358574 
   1.1282271 
    1.147501 
   1.1336029 
   1.1478776 
   1.1455114 
   1.1422928 
   1.1378861 
   1.1582304 
   1.1462798 
   1.1484873 
   1.1500862 
    1.141977 
   1.1525332 
   1.1383431 
   1.1277664 
   1.1647597 
   1.1303315 
   1.1297534 
   1.1412596 
   1.1269837 
   1.1476883 
   1.1566102 
   1.1510007 
   1.1464444 
   1.1240691 
   1.1482395 
   1.1373908 
   1.1277524 
   1.1454432 
   1.1268564 
    1.134687 
   1.1554675 
   1.1545618 
   1.1586659 
   1.1384993 
   1.1457318 
    1.145144 
    1.147635 
   1.1281887 
    1.148377 
    1.148497 
   1.1585347 
   1.1319768 
   1.1429482 
   1.1472259 
   1.1420635 
   1.1284366 
    1.152377 
   1.1391001 
   1.1548308 
   1.1422727 
   1.1388888 
   1.1394105 
   1.1430478 
   1.1250713 
   1.1525368 
   1.1365898 
   1.1224494 
   1.1323094 
   1.1451609 
   1.1283635 
    1.133079 
   1.1228424 
   1.1487264 
   1.1578189 
   1.1448512 
   1.1396687 
   1.1399788 
   1.1401648 
   1.1315873 
   1.1341719 
Loop time of 5269.78 on 128 procs for 5000000 steps with 3152 atoms

Performance: 163.954 ns/day, 0.146 hours/ns, 948.806 timesteps/s
99.4% CPU use with 128 MPI tasks x no OpenMP threads

MPI task timing breakdown:
Section |  min time  |  avg time  |  max time  |%varavg| %total
---------------------------------------------------------------
Pair    | 1176.3     | 1414.9     | 1622.1     | 295.2 | 26.85
Bond    | 0.45155    | 0.57467    | 1.0058     |  11.4 |  0.01
Kspace  | 2116.3     | 2323.7     | 2554.4     | 226.4 | 44.10
Neigh   | 143.14     | 147.27     | 151.8      |  28.7 |  2.79
Comm    | 544.18     | 611.47     | 687.5      | 136.9 | 11.60
Output  | 0.018909   | 0.02399    | 0.064224   |   3.0 |  0.00
Modify  | 584.84     | 689.49     | 739.94     | 134.9 | 13.08
Other   |            | 82.37      |            |       |  1.56

Nlocal:    24.625 ave 34 max 14 min
Histogram: 1 4 4 13 28 25 25 17 7 4
Nghost:    2896.14 ave 2937 max 2870 min
Histogram: 9 14 25 27 21 11 7 7 5 2
Neighs:    9210.03 ave 13737 max 5402 min
Histogram: 3 9 17 22 22 21 24 5 3 2

Total # of neighbors = 1178884
Ave neighs/atom = 374.011
Ave special neighs/atom = 1.90355
Neighbor list builds = 436549
Dangerous builds = 0
Changing box ...
  orthogonal box = (0.830023 0.830023 0.830023) to (32.794 32.8662 32.8662)
  orthogonal box = (0.830023 0.830023 0.830023) to (32.794 32.794 32.8662)
  orthogonal box = (0.830023 0.830023 0.830023) to (32.794 32.794 32.794)
PPPM initialization ...
  extracting TIP4P info from pair style
  using 12-bit tables for long-range coulomb (../kspace.cpp:321)
  G vector (1/distance) = 0.310575
  grid = 30 30 30
  stencil order = 5
  estimated absolute RMS force accuracy = 0.00368014
  estimated relative force accuracy = 1.10826e-05
  using double precision FFTs
  3d grid and FFT values/proc = 2475 256
Setting up Verlet run ...
  Unit style    : real
  Current step  : 0
  Time step     : 0.001
Per MPI rank memory allocation (min/avg/max) = 8.199 | 8.211 | 8.219 Mbytes
Density 
   1.1418738 
   1.1418738 
Loop time of 8.00357 on 128 procs for 10000 steps with 3152 atoms

Performance: 0.108 ns/day, 222.321 hours/ns, 1249.442 timesteps/s
99.5% CPU use with 128 MPI tasks x no OpenMP threads

MPI task timing breakdown:
Section |  min time  |  avg time  |  max time  |%varavg| %total
---------------------------------------------------------------
Pair    | 1.2289     | 2.1147     | 3.1954     |  26.7 | 26.42
Bond    | 0.00070088 | 0.00086639 | 0.0013478  |   0.0 |  0.01
Kspace  | 2.9244     | 3.9933     | 4.8891     |  19.2 | 49.89
Neigh   | 0          | 0          | 0          |   0.0 |  0.00
Comm    | 0.97776    | 1.0739     | 1.1496     |   4.0 | 13.42
Output  | 2.5658e-05 | 3.6304e-05 | 0.00011595 |   0.0 |  0.00
Modify  | 0.62604    | 0.70235    | 0.75603    |   4.1 |  8.78
Other   |            | 0.1185     |            |       |  1.48

Nlocal:    24.625 ave 35 max 15 min
Histogram: 1 7 8 22 22 25 25 10 7 1
Nghost:    2914.88 ave 2952 max 2890 min
Histogram: 10 15 27 16 23 12 8 4 8 5
Neighs:    9271.4 ave 14053 max 5804 min
Histogram: 7 10 18 24 21 26 15 5 0 2

Total # of neighbors = 1186739
Ave neighs/atom = 376.503
Ave special neighs/atom = 1.90355
Neighbor list builds = 0
Dangerous builds = 0
PPPM initialization ...
  extracting TIP4P info from pair style
  using 12-bit tables for long-range coulomb (../kspace.cpp:321)
  G vector (1/distance) = 0.310575
  grid = 30 30 30
  stencil order = 5
  estimated absolute RMS force accuracy = 0.00368014
  estimated relative force accuracy = 1.10826e-05
  using double precision FFTs
  3d grid and FFT values/proc = 2475 256
Setting up Verlet run ...
  Unit style    : real
  Current step  : 10000
  Time step     : 0.01
Per MPI rank memory allocation (min/avg/max) = 8.199 | 8.211 | 8.219 Mbytes
Density 
   1.1418738 
   1.1418738 
Loop time of 7.72093 on 128 procs for 10000 steps with 3152 atoms

Performance: 1.119 ns/day, 21.447 hours/ns, 1295.180 timesteps/s
99.5% CPU use with 128 MPI tasks x no OpenMP threads

MPI task timing breakdown:
Section |  min time  |  avg time  |  max time  |%varavg| %total
---------------------------------------------------------------
Pair    | 1.3008     | 2.1092     | 3.1062     |  24.5 | 27.32
Bond    | 0.00071421 | 0.000861   | 0.0013224  |   0.0 |  0.01
Kspace  | 2.7741     | 3.7637     | 4.5641     |  18.2 | 48.75
Neigh   | 0.0012147  | 0.0012287  | 0.0012514  |   0.0 |  0.02
Comm    | 0.97737    | 1.0586     | 1.1329     |   3.7 | 13.71
Output  | 2.9876e-05 | 4.3211e-05 | 7.6563e-05 |   0.0 |  0.00
Modify  | 0.60995    | 0.68169    | 0.73814    |   3.9 |  8.83
Other   |            | 0.1057     |            |       |  1.37

Nlocal:    24.625 ave 34 max 16 min
Histogram: 4 7 14 22 11 32 21 10 5 2
Nghost:    2905.38 ave 2944 max 2865 min
Histogram: 2 3 15 18 25 22 20 11 8 4
Neighs:    9271.63 ave 13095 max 5992 min
Histogram: 6 8 17 18 26 22 15 10 3 3

Total # of neighbors = 1186769
Ave neighs/atom = 376.513
Ave special neighs/atom = 1.90355
Neighbor list builds = 4
Dangerous builds = 0
PPPM initialization ...
  extracting TIP4P info from pair style
  using 12-bit tables for long-range coulomb (../kspace.cpp:321)
  G vector (1/distance) = 0.310575
  grid = 30 30 30
  stencil order = 5
  estimated absolute RMS force accuracy = 0.00368014
  estimated relative force accuracy = 1.10826e-05
  using double precision FFTs
  3d grid and FFT values/proc = 2475 256
Setting up Verlet run ...
  Unit style    : real
  Current step  : 20000
  Time step     : 0.1
Per MPI rank memory allocation (min/avg/max) = 8.199 | 8.211 | 8.219 Mbytes
Density 
   1.1418738 
   1.1418738 
Loop time of 7.79992 on 128 procs for 10000 steps with 3152 atoms

Performance: 11.077 ns/day, 2.167 hours/ns, 1282.065 timesteps/s
99.5% CPU use with 128 MPI tasks x no OpenMP threads

MPI task timing breakdown:
Section |  min time  |  avg time  |  max time  |%varavg| %total
---------------------------------------------------------------
Pair    | 1.3017     | 2.1135     | 2.8474     |  20.8 | 27.10
Bond    | 0.00070967 | 0.00086353 | 0.0013273  |   0.0 |  0.01
Kspace  | 3.0771     | 3.7773     | 4.5357     |  15.6 | 48.43
Neigh   | 0.014417   | 0.014728   | 0.014926   |   0.1 |  0.19
Comm    | 1.0049     | 1.0994     | 1.1639     |   3.6 | 14.10
Output  | 2.7812e-05 | 4.2441e-05 | 7.9809e-05 |   0.0 |  0.00
Modify  | 0.61606    | 0.68757    | 0.74108    |   3.8 |  8.82
Other   |            | 0.1064     |            |       |  1.36

Nlocal:    24.625 ave 32 max 15 min
Histogram: 1 3 13 7 26 28 10 23 12 5
Nghost:    2906.05 ave 2933 max 2874 min
Histogram: 1 5 11 15 22 26 19 12 11 6
Neighs:    9271.7 ave 13706 max 5793 min
Histogram: 4 8 22 19 23 23 17 11 0 1

Total # of neighbors = 1186778
Ave neighs/atom = 376.516
Ave special neighs/atom = 1.90355
Neighbor list builds = 45
Dangerous builds = 0
PPPM initialization ...
  extracting TIP4P info from pair style
  using 12-bit tables for long-range coulomb (../kspace.cpp:321)
  G vector (1/distance) = 0.310575
  grid = 30 30 30
  stencil order = 5
  estimated absolute RMS force accuracy = 0.00368014
  estimated relative force accuracy = 1.10826e-05
  using double precision FFTs
  3d grid and FFT values/proc = 2475 256
Setting up Verlet run ...
  Unit style    : real
  Current step  : 30000
  Time step     : 0.2
Per MPI rank memory allocation (min/avg/max) = 8.199 | 8.211 | 8.219 Mbytes
Density 
   1.1418738 
   1.1418738 
Loop time of 7.87035 on 128 procs for 10000 steps with 3152 atoms

Performance: 21.956 ns/day, 1.093 hours/ns, 1270.591 timesteps/s
99.5% CPU use with 128 MPI tasks x no OpenMP threads

MPI task timing breakdown:
Section |  min time  |  avg time  |  max time  |%varavg| %total
---------------------------------------------------------------
Pair    | 1.4973     | 2.1226     | 2.9967     |  18.2 | 26.97
Bond    | 0.00071121 | 0.00086848 | 0.0013539  |   0.0 |  0.01
Kspace  | 2.9733     | 3.8271     | 4.4374     |  13.5 | 48.63
Neigh   | 0.027769   | 0.028086   | 0.02836    |   0.1 |  0.36
Comm    | 0.99978    | 1.0859     | 1.1445     |   3.6 | 13.80
Output  | 4.9873e-05 | 6.3583e-05 | 0.00010413 |   0.0 |  0.00
Modify  | 0.62593    | 0.69787    | 0.75401    |   3.9 |  8.87
Other   |            | 0.1079     |            |       |  1.37

Nlocal:    24.625 ave 35 max 18 min
Histogram: 6 15 23 21 31 17 4 9 1 1
Nghost:    2907.35 ave 2944 max 2864 min
Histogram: 4 6 7 15 22 19 24 13 11 7
Neighs:    9275.58 ave 13778 max 6367 min
Histogram: 6 14 28 23 14 25 12 3 2 1

Total # of neighbors = 1187274
Ave neighs/atom = 376.673
Ave special neighs/atom = 1.90355
Neighbor list builds = 88
Dangerous builds = 0
PPPM initialization ...
  extracting TIP4P info from pair style
  using 12-bit tables for long-range coulomb (../kspace.cpp:321)
  G vector (1/distance) = 0.310575
  grid = 30 30 30
  stencil order = 5
  estimated absolute RMS force accuracy = 0.00368014
  estimated relative force accuracy = 1.10826e-05
  using double precision FFTs
  3d grid and FFT values/proc = 2475 256
Setting up Verlet run ...
  Unit style    : real
  Current step  : 40000
  Time step     : 0.5
Per MPI rank memory allocation (min/avg/max) = 8.199 | 8.211 | 8.219 Mbytes
Density 
   1.1418738 
   1.1418738 
Loop time of 8.02687 on 128 procs for 10000 steps with 3152 atoms

Performance: 53.819 ns/day, 0.446 hours/ns, 1245.816 timesteps/s
99.4% CPU use with 128 MPI tasks x no OpenMP threads

MPI task timing breakdown:
Section |  min time  |  avg time  |  max time  |%varavg| %total
---------------------------------------------------------------
Pair    | 1.5556     | 2.1455     | 2.9051     |  16.2 | 26.73
Bond    | 0.00071569 | 0.00087316 | 0.0013309  |   0.0 |  0.01
Kspace  | 3.1226     | 3.8628     | 4.4497     |  12.1 | 48.12
Neigh   | 0.06972    | 0.07047    | 0.071299   |   0.1 |  0.88
Comm    | 1.0391     | 1.131      | 1.1989     |   3.8 | 14.09
Output  | 3.2181e-05 | 4.4263e-05 | 0.00011606 |   0.0 |  0.00
Modify  | 0.62319    | 0.69977    | 0.75693    |   4.0 |  8.72
Other   |            | 0.1164     |            |       |  1.45

Nlocal:    24.625 ave 33 max 15 min
Histogram: 1 6 9 20 12 31 22 13 10 4
Nghost:    2917.98 ave 2963 max 2884 min
Histogram: 4 10 15 28 30 21 10 4 5 1
Neighs:    9272.44 ave 12929 max 5255 min
Histogram: 1 6 8 25 22 24 17 8 10 7

Total # of neighbors = 1186872
Ave neighs/atom = 376.546
Ave special neighs/atom = 1.90355
Neighbor list builds = 220
Dangerous builds = 0
PPPM initialization ...
  extracting TIP4P info from pair style
  using 12-bit tables for long-range coulomb (../kspace.cpp:321)
  G vector (1/distance) = 0.310575
  grid = 30 30 30
  stencil order = 5
  estimated absolute RMS force accuracy = 0.00368014
  estimated relative force accuracy = 1.10826e-05
  using double precision FFTs
  3d grid and FFT values/proc = 2475 256
Setting up Verlet run ...
  Unit style    : real
  Current step  : 0
  Time step     : 2
Per MPI rank memory allocation (min/avg/max) = 8.199 | 8.211 | 8.219 Mbytes
Density 
   1.1418738 
   1.1418738 
   1.1418738 
   1.1418738 
   1.1418738 
   1.1418738 
   1.1418738 
   1.1418738 
   1.1418738 
   1.1418738 
   1.1418738 
Loop time of 94.9729 on 128 procs for 100000 steps with 3152 atoms

Performance: 181.947 ns/day, 0.132 hours/ns, 1052.931 timesteps/s
99.3% CPU use with 128 MPI tasks x no OpenMP threads

MPI task timing breakdown:
Section |  min time  |  avg time  |  max time  |%varavg| %total
---------------------------------------------------------------
Pair    | 18.165     | 21.898     | 25.563     |  36.9 | 23.06
Bond    | 0.0072241  | 0.0087109  | 0.013326   |   1.0 |  0.01
Kspace  | 42.329     | 45.764     | 49.466     |  26.1 | 48.19
Neigh   | 3.1667     | 3.2397     | 3.2776     |   1.2 |  3.41
Comm    | 12.991     | 13.803     | 14.401     |   9.0 | 14.53
Output  | 0.00034093 | 0.00044166 | 0.00099825 |   0.0 |  0.00
Modify  | 7.2675     | 7.9198     | 8.7696     |  10.4 |  8.34
Other   |            | 2.339      |            |       |  2.46

Nlocal:    24.625 ave 34 max 17 min
Histogram: 2 10 15 19 33 29 7 10 2 1
Nghost:    2911.05 ave 2939 max 2883 min
Histogram: 2 7 14 18 20 24 17 18 5 3
Neighs:    9274.97 ave 12926 max 5568 min
Histogram: 2 6 11 18 28 18 28 9 4 4

Total # of neighbors = 1187196
Ave neighs/atom = 376.648
Ave special neighs/atom = 1.90355
Neighbor list builds = 8638
Dangerous builds = 0
WARNING: New thermo_style command, previous thermo_modify settings will be lost (../output.cpp:705)
PPPM initialization ...
  extracting TIP4P info from pair style
  using 12-bit tables for long-range coulomb (../kspace.cpp:321)
  G vector (1/distance) = 0.310575
  grid = 30 30 30
  stencil order = 5
  estimated absolute RMS force accuracy = 0.00368014
  estimated relative force accuracy = 1.10826e-05
  using double precision FFTs
  3d grid and FFT values/proc = 2475 256
Setting up Verlet run ...
  Unit style    : real
  Current step  : 0
  Time step     : 2
[...]
98200000    296.71517    297.64266   -222.00786    42.062075   -20654.085    1902.4553   -18751.629 
98210000    301.14889    298.24193   -288.75864   -89.932679   -20626.377    1930.8831   -18695.494 
98220000    300.42001    297.90793    477.46912   -71.938037   -20704.454    1926.2097   -18778.244 
98230000    297.16443    297.73051     767.0392    66.443493   -20612.207    1905.3358   -18706.871 
98240000    292.17446    298.12103    127.87146   -37.594739    -20600.64    1873.3415   -18727.298 
98250000     298.3171    298.10695   -305.37953    3.1746637   -20648.399    1912.7264   -18735.673 
98260000    300.10954    297.83909    15.298262   -104.46266   -20604.423    1924.2191   -18680.204 
98270000    298.24227    297.82308    279.33644    -80.23727   -20601.296    1912.2467    -18689.05 
98280000    298.03406    297.58402   -578.44744    32.682552   -20656.031    1910.9117   -18745.119 
98290000    301.16813    297.93361   -143.29124   -32.045712   -20677.266    1931.0064    -18746.26 
98300000     298.5717    297.99849   -555.99127    74.271319   -20683.954    1914.3589   -18769.595 
98310000    303.03129    297.93054   -1.8089696   -13.588731   -20619.004    1942.9525   -18676.052 
98320000    303.27811     298.7703   -135.70758   -35.370548   -20594.001    1944.5351   -18649.466 
98330000    281.01072    298.08098   -309.49007   -21.825142   -20632.064    1801.7628   -18830.301 
98340000     302.6565    297.79733    216.31431   -106.04313   -20725.269    1940.5495   -18784.719 
98350000     296.5065    298.01904    36.538181    49.257073   -20724.806    1901.1174   -18823.689 
98360000    303.95912    298.07204     482.3603   -10.723744   -20556.311    1948.9015    -18607.41 
98370000    296.90082     298.4601    306.70004   -105.24522    -20550.04    1903.6456   -18646.394 
98380000    309.78963    298.08844   -225.63548   -63.707445   -20620.692    1986.2851   -18634.407 
98390000    286.50502    297.86189   -391.80767   -73.696313   -20580.116    1836.9906   -18743.125 
98400000    298.74039    297.91395    261.07274   -81.643715   -20634.801    1915.4405   -18719.361 
98410000    304.21512    298.54393    245.43703   0.84252721   -20693.993    1950.5429    -18743.45 
98420000    293.20503    298.06111    702.02325   -16.784794   -20700.516    1879.9493   -18820.567 
98430000    293.85201    297.52231    355.66453    4.3416555   -20534.618    1884.0975   -18650.521 
98440000    291.51233    297.95233   -384.28271   -26.402783   -20592.585    1869.0961   -18723.488 
98450000    289.15028     297.7185    218.61175   -27.600463   -20565.059    1853.9513   -18711.108 
98460000    292.79306    298.15686   -223.32206   -11.211125   -20645.942    1877.3079   -18768.634 
98470000    296.82506    298.09178    385.01428   -86.661987   -20591.421    1903.1599   -18688.261 
98480000    296.45168    297.91555   -924.82031    63.739582   -20625.841    1900.7659   -18725.075 
98490000    298.76215    297.98777    443.07449   -119.20075   -20618.875      1915.58   -18703.295 
98500000    293.44726    297.78624    292.25166   -21.620897   -20616.125    1881.5024   -18734.622 
98510000    306.83357    297.62564   -80.529732    67.595623   -20609.783    1967.3317   -18642.452 
98520000    302.62855    297.92914    109.13753    4.1146003   -20603.781    1940.3703    -18663.41 
98530000    298.69337    297.88638   -149.35647    8.2456677    -20609.68     1915.139   -18694.541 
98540000    300.53389    298.12975    38.614672   -18.054617   -20610.257    1926.9399   -18683.318 
98550000    304.79549    298.28634   -99.117108   -32.839573   -20708.329    1954.2641   -18754.065 
98560000    296.91287    297.85707   -428.29392   -54.103758   -20557.195    1903.7229   -18653.472 
98570000    291.60423    297.67347   -322.98765    2.4755167   -20591.624    1869.6854   -18721.939 
98580000    297.45195    298.16361     238.0059   -23.155591   -20527.671    1907.1793   -18620.491 
98590000    301.26882     298.0271    148.37235   -50.111592   -20646.911     1931.652   -18715.259 
98600000    296.98623    297.76021    155.62031    68.322978   -20696.614    1904.1933   -18792.421 
98610000    300.28284    298.59273   -131.38334    53.463706   -20644.631    1925.3302   -18719.301 
98620000    289.57375    297.35366   -393.87786    107.65468   -20673.116    1856.6665    -18816.45 
98630000    297.36178    298.39875   -156.58386   -35.863646   -20518.176    1906.6012   -18611.575 
98640000    307.41976    297.51797   -334.01925   -41.260394   -20680.042    1971.0901   -18708.952 
98650000    292.40799    298.24444   -193.94621   -21.945548   -20611.943    1874.8389   -18737.104 
98660000     296.7693      298.119   -341.73648   -15.229023   -20629.778    1902.8024   -18726.975 
98670000    292.57159    298.01247   -423.37337   -183.28016   -20603.725    1875.8878   -18727.837 
98680000    300.87072     298.3638    -168.4283     -10.3791   -20587.135    1929.0996   -18658.036 
98690000    292.08713    298.01355   -945.76483   -97.941564   -20632.921    1872.7816   -18760.139 
98700000    292.43193    298.17295    130.06765     10.84884   -20590.577    1874.9924   -18715.584 
98710000    305.68752    298.33862    105.29547   -7.8743622   -20646.113    1959.9836    -18686.13 
98720000    296.34827    297.76859   -316.79286    34.765647   -20585.176    1900.1029   -18685.073 
98730000    294.97601    297.51607     52.48418   -7.9804236   -20538.117    1891.3043   -18646.812 
98740000    301.82322    298.43397    177.29467    4.9963672   -20561.452    1935.2067   -18626.245 
98750000    309.06422    298.15113   -888.90729    39.580307   -20628.236     1981.634   -18646.602 
98760000    297.47183    297.93455    627.88914   -149.33705   -20663.759    1907.3068   -18756.452 
98770000     294.0286    297.88857   -858.15495    17.016956   -20655.778    1885.2297   -18770.548 
98780000    299.67808    298.01388   -49.510274   -21.427133   -20647.945    1921.4526   -18726.493 
98790000     299.3308     298.0451    495.69603   -72.424188   -20617.622     1919.226   -18698.396 
98800000     296.4356    298.29761    630.67457    30.546221   -20593.058    1900.6628   -18692.395 
98810000     289.1769    297.74618   -250.89818    31.222942   -20677.966     1854.122   -18823.844 
98820000     290.9013    298.30853   -88.567208   -42.454259   -20597.825    1865.1784   -18732.647 
98830000    294.51599    298.06102   -556.23674    30.484399   -20618.876    1888.3548   -18730.521 
98840000    290.73012     298.2187   -604.65884   -52.210402   -20692.002    1864.0809   -18827.921 
98850000    292.15022    298.06963    1.7904669    14.789892   -20478.265    1873.1861   -18605.079 
98860000     297.4956    297.98043    287.89854   -62.029772   -20554.566    1907.4592   -18647.107 
98870000    302.06705    298.26926    209.16491   -48.292265   -20598.472      1936.77   -18661.702 
98880000    296.71111     298.6692    383.79133   -37.145548   -20601.844    1902.4293   -18699.415 
98890000     290.2847    297.75976     488.8716   -32.233873   -20535.943    1861.2249   -18674.718 
98900000    296.64149     298.3292   -46.293824   -53.934449   -20702.775    1901.9829   -18800.792 
98910000    297.49477    297.49579   -421.55557    8.8460897   -20559.976    1907.4539   -18652.522 
98920000     290.7647    298.29859    62.730596   -17.808931    -20569.93    1864.3025   -18705.628 
98930000    296.15451    298.23244   -364.84929    8.9880516   -20730.088    1898.8605   -18831.227 
98940000    297.15736    298.24786    226.56858   -5.7825756   -20667.444    1905.2905   -18762.154 
98950000    302.35244    298.21588   -490.70273    50.631077    -20716.49    1938.5999    -18777.89 
98960000    300.14803    297.83116   -67.059667    -70.54703   -20589.997    1924.4659   -18665.531 
98970000    292.66686    298.03169    426.81519   -33.629367   -20648.203    1876.4987   -18771.705 
98980000     304.7845    298.00328     411.5611    126.13382   -20642.563    1954.1936    -18688.37 
98990000    289.17825    298.35345    255.29725   -63.507681   -20704.472    1854.1307   -18850.341 
99000000    297.91294    297.91654   -313.77507    72.435238   -20734.064    1910.1351   -18823.929 
99010000    294.30472    297.73044   -168.54051   -33.588383   -20705.995    1887.0002   -18818.995 
99020000    296.68221    297.84611    25.409323   -80.067992   -20618.388     1902.244   -18716.144 
99030000    296.68898    298.24861    -167.4176   -112.41975   -20657.062    1902.2874   -18754.775 
99040000    298.94676    297.95031   -340.20224    12.379728   -20635.085    1916.7636   -18718.321 
99050000    289.25507    298.19978    62.777376    -64.26856    -20594.96    1854.6232   -18740.337 
99060000    298.55783    297.76789    193.83077   0.39970538   -20692.271    1914.2699   -18778.001 
99070000    301.62166    297.90638   -337.06137   -10.377567   -20636.888    1933.9144   -18702.974 
99080000    291.43971    298.03981   -292.94639    99.829583   -20708.105    1868.6305   -18839.474 
99090000     296.4036    297.13486    51.193066   -23.222414   -20562.354    1900.4576   -18661.896 
99100000    293.17485    297.80814    253.43608   -19.022047   -20623.669    1879.7557   -18743.913 
99110000    304.00174    298.04452    -713.7208    -83.89003   -20686.149    1949.1747   -18736.974 
99120000    294.18166    297.66296   -77.398358   -45.606441    -20625.69    1886.2111   -18739.479 
99130000    290.05003    297.76454    13.615055   -90.389335   -20517.664    1859.7203   -18657.944 
99140000    304.68821    298.37162    510.42093   -42.146243   -20646.696    1953.5762    -18693.12 
99150000    304.81037    297.82897    313.37761   -84.824607   -20607.113    1954.3595   -18652.753 
99160000    297.07206    297.78638    176.16889    27.429465   -20587.442    1904.7436   -18682.698 
99170000    301.19473    298.13898   -427.77578    46.568263   -20652.957     1931.177    -18721.78 
99180000    307.06358    297.48409     401.7844    30.619795   -20597.272    1968.8064   -18628.465 
99190000    290.91482     297.8455   -212.91091    18.752947    -20612.43    1865.2651   -18747.165 
99200000    293.56759    297.95543      140.103   -65.841141   -20672.508    1882.2739   -18790.234 
99210000    303.38194    298.23276   -555.63037     29.10601   -20630.483    1945.2008   -18685.283 
99220000    299.46813    297.79338    730.63566   -89.335517   -20690.961    1920.1065   -18770.855 
99230000    296.48716    297.92986    336.75068   -20.518313   -20633.218    1900.9934   -18732.225 
99240000    298.65074    297.59748      31.6079    54.056223   -20684.994    1914.8657   -18770.128 
99250000    299.78126    297.92641    119.82814    16.687116   -20655.269    1922.1142   -18733.155 
99260000    301.07573    298.18777   -220.55482   -83.737058   -20681.005     1930.414   -18750.591 
99270000    300.91626    297.41864    368.31866    4.0301377   -20688.191    1929.3915   -18758.799 
99280000    305.16598    298.09516   -10.062872    64.471549   -20607.094    1956.6395   -18650.454 
99290000    298.51221    297.99856    557.96195   -91.203077   -20669.551    1913.9774   -18755.573 
99300000    290.81444    298.06578   -113.37565    101.07938   -20619.324    1864.6215   -18754.702 
99310000    294.48613    297.96266    464.45547   -85.159677   -20597.196    1888.1633   -18709.032 
99320000    293.78083    297.90146   -20.890343   -22.991902   -20592.368    1883.6411   -18708.727 
99330000     286.8868    298.13524    93.878238   -2.1426273   -20529.167    1839.4386   -18689.728 
99340000    294.53164    297.76343    141.38547   -34.804188   -20612.657    1888.4551   -18724.202 
99350000    294.89696    298.23815   -83.923532   -17.887429   -20692.826    1890.7975   -18802.028 
99360000    305.33048    297.99276   -30.809065    9.9471465   -20645.828    1957.6943   -18688.133 
99370000    301.61648     297.8862   -289.54242   -6.9151854    -20610.07    1933.8811   -18676.189 
99380000    305.36218    297.88512   -84.798486   -137.13518   -20611.615    1957.8975   -18653.717 
99390000    296.54824    298.12587    229.98776   -43.212509   -20510.074     1901.385   -18608.688 
99400000    305.85398    298.06327    765.73154   -94.877831   -20652.844    1961.0508   -18691.793 
99410000    306.00847    297.63691    -124.2734    14.015124   -20617.601    1962.0414   -18655.559 
99420000    298.76957    298.05405    774.48849   -5.8253439   -20642.728    1915.6275     -18727.1 
99430000    282.67193    297.73407    318.20147    56.815356   -20587.046    1812.4139   -18774.632 
99440000    305.22716    297.71506    77.646666   -3.3886852   -20650.285    1957.0318   -18693.253 
99450000     293.6116    298.36235   -60.927039   -37.494361   -20716.109    1882.5561   -18833.553 
99460000    301.37766    297.55315    754.54711     13.62122   -20625.149    1932.3499     -18692.8 
99470000    296.42293    298.03725    370.78635    71.613194   -20638.801    1900.5815    -18738.22 
99480000    299.20131    297.84243    388.47005   -56.683895   -20606.847    1918.3958   -18688.451 
99490000    306.36811    297.91517   -164.48444   -42.216116   -20600.752    1964.3473   -18636.405 
99500000    306.39575    298.26789   -211.40732   -36.368402    -20577.86    1964.5245   -18613.336 
99510000    294.86284     297.8576    123.57322   -64.287507   -20636.789    1890.5787   -18746.211 
99520000    280.78933    298.29602    111.23921   -30.645283   -20614.179    1800.3432   -18813.835 
99530000    290.20282    297.51192   -530.34376    14.158112   -20634.976    1860.6999   -18774.276 
99540000    301.01106    298.61693    679.97381    61.814197   -20568.915    1929.9994   -18638.916 
99550000     294.7436    297.79634   -4.4690454   -86.108102    -20680.83    1889.8141   -18791.016 
99560000    303.62741    297.46443   -74.364757   -52.043721   -20700.341    1946.7747   -18753.566 
99570000    302.09628    297.67114    89.747928    126.35023   -20704.041    1936.9575   -18767.084 
99580000     289.6134    298.15915   -206.07953   -49.944793   -20657.033    1856.9207   -18800.113 
99590000    300.42345    297.98512    629.22104    18.479473   -20697.228    1926.2318   -18770.996 
99600000     304.8884    298.20618   -366.88271     100.8749   -20604.282    1954.8598   -18649.423 
99610000    289.72575    298.21688   -481.00495     -10.0943   -20658.972    1857.6411   -18801.331 
99620000    295.64478    297.91841    258.07382   -28.849633   -20574.368    1895.5923   -18678.776 
99630000    298.51291    298.09823    329.71157   -45.645041   -20562.112    1913.9819   -18648.131 
99640000    297.69202    298.27426    343.37119    52.356353   -20615.551    1908.7186   -18706.833 
99650000     307.8889     298.1281    502.33156    15.961172   -20600.348    1974.0982    -18626.25 
99660000    293.87874    297.86927    143.82714   -101.61246   -20674.253    1884.2689   -18789.984 
99670000    291.61748    298.21332   -1069.8101    7.5752237   -20665.411    1869.7703    -18795.64 
99680000    296.31797    298.06804    166.64778     -15.2098   -20642.874    1899.9086   -18742.965 
99690000    296.35418    297.71927    170.20585    38.150743   -20712.711    1900.1408   -18812.571 
99700000    306.95121    297.74839   -327.26118    7.8487609   -20597.284    1968.0859   -18629.198 
99710000    291.85152    298.01086   -104.72041    4.0668415   -20660.669     1871.271   -18789.398 
99720000    306.02015    298.67898    39.020552    29.545138   -20634.159    1962.1163   -18672.043 
99730000    305.56026    298.21963    175.24581    121.94459   -20607.266    1959.1676   -18648.098 
99740000    296.52961    298.01554   -480.81694    62.737173    -20616.28    1901.2655   -18715.014 
99750000    299.06852    298.10912    23.466986   -105.78636   -20622.075    1917.5443   -18704.531 
99760000    284.85022    298.18087   -409.68627    32.198378    -20609.49    1826.3805   -18783.109 
99770000    294.52467    298.26376    720.49362   -28.543313   -20615.534    1888.4104   -18727.124 
99780000    293.46614    298.04754   -99.050364   -2.8712244   -20637.209    1881.6234   -18755.585 
99790000    294.92221    298.14297    280.98613   -76.806733   -20532.755    1890.9593   -18641.796 
99800000    292.96556    297.56861    568.39484    37.936086   -20626.231    1878.4138   -18747.817 
99810000    299.50169    297.69698    99.703473   -170.61237   -20702.064    1920.3217   -18781.742 
99820000    295.54027    297.97441    321.57482    56.437808   -20603.536    1894.9221   -18708.614 
99830000    298.25528     298.2001   -132.65242     106.0409   -20715.836    1912.3301   -18803.505 
99840000     295.3467    298.36004    310.91032    -64.39699   -20647.332    1893.6811   -18753.651 
99850000    293.21345    297.81298   -663.72251   -19.808494   -20585.514    1880.0032   -18705.511 
99860000    301.27794    297.65431   -233.53035    54.999573   -20665.844    1931.7106   -18734.133 
99870000    293.91061    297.95079    -248.4471   -92.799779    -20662.57    1884.4733   -18778.097 
99880000    299.23389    297.61452    148.39335     9.510748   -20589.835    1918.6047    -18671.23 
99890000     299.8774    297.93574    403.37841    18.133867   -20603.138    1922.7307   -18680.407 
99900000    296.35106    298.25814    682.74389     10.68016   -20617.321    1900.1208     -18717.2 
99910000    288.65412    297.84665   -693.75987    63.781108   -20603.265    1850.7701   -18752.495 
99920000    300.56782    297.57352    286.94855   -19.582918    -20655.93    1927.1574   -18728.772 
99930000    305.50929    298.36963     743.5033   -52.044378   -20637.095    1958.8407   -18678.254 
99940000    295.44494    297.88584   -208.64947   -19.595809   -20652.673    1894.3109   -18758.363 
99950000    297.29167    297.44316   -307.23581   -37.890621   -20571.112    1906.1517   -18664.961 
99960000    301.78307     297.6728   -698.58685   -10.387597   -20691.619    1934.9493    -18756.67 
99970000    297.94819    297.85372    -549.4976   -25.842276   -20553.365    1910.3611   -18643.004 
99980000    297.05089    297.74525   -588.75527    -69.61912   -20594.434    1904.6078   -18689.826 
99990000    295.77593     297.6471    19.145871   -85.872977   -20589.908    1896.4332   -18693.475 
100000000    307.04498    298.37816    -136.8942   -27.484593    -20491.93    1968.6872   -18523.243 
Loop time of 92835.2 on 128 procs for 100000000 steps with 3152 atoms

Performance: 186.136 ns/day, 0.129 hours/ns, 1077.178 timesteps/s
99.4% CPU use with 128 MPI tasks x no OpenMP threads

MPI task timing breakdown:
Section |  min time  |  avg time  |  max time  |%varavg| %total
---------------------------------------------------------------
Pair    | 19929      | 23689      | 27333      |1166.6 | 25.52
Bond    | 8.6682     | 10.33      | 14.633     |  31.6 |  0.01
Kspace  | 38925      | 42417      | 46226      | 885.1 | 45.69
Neigh   | 2942.5     | 2971       | 3004.6     |  27.7 |  3.20
Comm    | 11626      | 12480      | 13071      | 334.1 | 13.44
Output  | 4.4243     | 86.359     | 101.94     | 168.1 |  0.09
Modify  | 9060.1     | 9623.3     | 10198      | 335.6 | 10.37
Other   |            | 1559       |            |       |  1.68

Nlocal:    24.625 ave 31 max 16 min
Histogram: 2 1 9 7 28 17 26 15 17 6
Nghost:    2910.31 ave 2928 max 2886 min
Histogram: 6 2 5 10 11 30 28 17 15 4
Neighs:    9275.05 ave 13298 max 5378 min
Histogram: 4 1 13 18 33 24 17 11 6 1

Total # of neighbors = 1187206
Ave neighs/atom = 376.652
Ave special neighs/atom = 1.90355
Neighbor list builds = 8648164
Dangerous builds = 0

JOB STATISTICS
==============
Job ID: 2423578
Cluster: snellius
User/Group: phabibi/phabibi
State: RUNNING
Nodes: 1
Cores per node: 128
CPU Utilized: 00:00:00
CPU Efficiency: 0.00% of 153-13:05:04 core-walltime
Job Wall-clock time: 1-04:47:23
Memory Utilized: 0.00 MB (estimated maximum)
Memory Efficiency: 0.00% of 224.00 GB (1.75 GB/core)
WARNING: Efficiency statistics may be misleading for RUNNING jobs.
