LAMMPS (22 Aug 2018)
####################################################
# Transport properties of NaCl in water
#  at 298 K and 1 atm.
#################### SETTING UP ####################
units real
dimension 3
newton on
boundary p p p
atom_style full

#################### VARIABLES ####################
variable Temp equal 298       # Temperature in K
variable Pres equal 1.0       # Pressure in atm.

variable RandomSeed equal 200 # The random seed for velocity
variable tstep equal 2.0      # 2fs
variable Ninptpre equal 10000 # Pre-initialize the NPT ensemble (very small timesteps)
variable Ninpt equal 5000000    # Initialize the NPT ensemble
variable Npnpt equal 5000000  # Production in the NPT ensemble (volume)
variable Ninvtpre equal 10000 # Pre-initialize the NVT ensemble (very small timesteps)
variable Ninvt equal 100000   # Initialize the NVT ensemble
variable Npnvt equal 100000   # Production in the NVT ensemble (energy)
variable Nrun equal 100000000   # production in the NVE ensemble
variable Nf equal 10000       # Nfreq (fix ave/time and thermo)
variable Ne equal  10         # Nevery (fix ave/time)
variable Nr equal ${Nf}/${Ne} # Nrepeat (fix ave/time)
variable Nr equal 10000/${Ne} 
variable Nr equal 10000/10 
variable NBR equal ${Npnpt}/50 # Block averaging for density (NPT)
variable NBR equal 5000000/50 
variable Nd equal ${Npnvt}/10 # Frequency of outputting positions of atoms in the NVT ensemble
variable Nd equal 100000/10 

variable nb equal 10          # Number of blocks (fix ordern)
variable nbe equal 20         # Number of block elements (fix ordern)
variable Nvisc equal 5        # Nevery for viscosity (fix ordern: sample data at (Nvisc*2))
variable Ncond equal 5        # Nevery for Tconductivity (fix ordern: sample data at (Ncond*2))
variable Ndiff equal 1000     # Nevery for diffusivity (fix ordern: sample data at (Ndiff))
variable Nwrit equal 100000   # Nwrite for transport properties (fix ordern: write every (Nwrit))

variable Nrdfe equal 100      # Nevery for RDF (fix ave/time)
variable Nrdfw equal 1000     # Nwrite for RDF (compute rdf/ext: write every (Nrdfw*Nrdfe))
variable binnum equal 2000    # Number of bins for RDF

#################### ATOM DEFINITION and FORCEFIELD ####################
read_data ./data.lmp                     # read the positions
  orthogonal box = (0 0 0) to (34.309 34.309 34.309)
  4 by 4 by 8 MPI processor grid
  reading atoms ...
  3216 atoms
  scanning bonds ...
  2 = max bonds/atom
  scanning angles ...
  1 = max angles/atom
  reading bonds ...
  2000 bonds
  reading angles ...
  1000 angles
  2 = max # of 1-2 neighbors
  1 = max # of 1-3 neighbors
  1 = max # of 1-4 neighbors
  2 = max # of special neighbors
include ./forcefield.data                  # read the force field
#--------INTERMOLECULAR POTENTIAL -------------------#
# ---------------Developed for NaCl in water (tip4p/2005) system-----

mass 1 15.9994 # Ow
mass 2 1.00794 # Hw
mass 3 22.9897 # Na
mass 4 35.4527 # Cl

pair_style lj/cut/tip4p/long 1 2 1 1 0.1546 10.0

kspace_style pppm/tip4p 1.0e-5
pair_modify tail yes # ATC i

#-----------------Combinations----------------------------
# atomtype atomtype epsilon sigma

pair_coeff 1 1 0.1851 3.1589     # Ow-Ow
pair_coeff 1 2 0.0000 0.0000     # Ow-Hw
pair_coeff 1 3 0.1895 2.38725     # Ow-Na
pair_coeff 1 4 0.0148 4.07631     # Ow-Cl

pair_coeff 2 2 0.0000 0.0000     # Hw-Hw
pair_coeff 2 3 0.0000 0.0000     # Hw-Na
pair_coeff 2 4 0.0000 0.0000     # Hw-Cl

pair_coeff 3 3 0.3517 2.21737     # Na-Na
pair_coeff 3 4 0.3437 2.58012     # Na-Cl

pair_coeff 4 4 0.01837 4.69906     # Cl-Cl

bond_style  harmonic
bond_coeff 1 1000 0.9572          # Ow-Hw

angle_style harmonic
angle_coeff 1 100 104.52          # H-O-H

#dihedral_style none
#improper_style none

set type 1 charge -1.1128        # O
  1000 settings made for charge
set type 2 charge +0.5564        # OH
  2000 settings made for charge
set type 3 charge +0.7500        # Na
  108 settings made for charge
set type 4 charge -0.7500        # Cl
  108 settings made for charge


#################### INITIALIZATION ####################
# groups for the central atoms of water (O)
group wat type 1      # The Oxygen of WATER molecules
1000 atoms in group wat
group Na type 3
108 atoms in group Na
group Cl type 4
108 atoms in group Cl

# neigbor lists
neighbor 2.0 bin
neigh_modify every 1 delay 0 check yes

# velocity-Verlet integrator
run_style verlet

# minimizing the system using the conjugate gradient method
min_style cg
min_modify dmax 0.05
minimize 1.0e-6 1.0e-6 1000 10000
PPPM initialization ...
  extracting TIP4P info from pair style
  using 12-bit tables for long-range coulomb (../kspace.cpp:321)
  G vector (1/distance) = 0.31012
  grid = 32 32 32
  stencil order = 5
  estimated absolute RMS force accuracy = 0.00343213
  estimated relative force accuracy = 1.03358e-05
  using double precision FFTs
  3d grid and FFT values/proc = 2475 256
Neighbor list info ...
  update every 1 steps, delay 0 steps, check yes
  max neighbors/atom: 2000, page size: 100000
  master list distance cutoff = 12.3092
  ghost atom cutoff = 12.3092
  binsize = 6.1546, bins = 6 6 6
  1 neighbor lists, perpetual/occasional/extra = 1 0 0
  (1) pair lj/cut/tip4p/long, perpetual
      attributes: half, newton on
      pair build: half/bin/newton
      stencil: half/bin/3d/newton
      bin: standard
Per MPI rank memory allocation (min/avg/max) = 8.192 | 8.263 | 8.456 Mbytes
Step Temp E_pair E_mol TotEng Press 
       0            0   -508.62972 3.5803898e-05   -508.62968    24860.233 
    1000            0   -26835.306    374.37527    -26460.93   -5056.9035 
Loop time of 1.41399 on 128 procs for 1000 steps with 3216 atoms

99.1% CPU use with 128 MPI tasks x no OpenMP threads

Minimization stats:
  Stopping criterion = max iterations
  Energy initial, next-to-last, final = 
        -508.629684005      -26460.785504     -26460.9303589
  Force two-norm initial, final = 2129.06 26.8163
  Force max component initial, final = 241.5 7.50507
  Final line search alpha, max atom move = 0.00651646 0.0489065
  Iterations, force evaluations = 1000 1766

MPI task timing breakdown:
Section |  min time  |  avg time  |  max time  |%varavg| %total
---------------------------------------------------------------
Pair    | 0.12184    | 0.34546    | 0.55577    |  14.7 | 24.43
Bond    | 0.00087645 | 0.0015986  | 0.0022698  |   0.6 |  0.11
Kspace  | 0.59209    | 0.81233    | 1.0272     |   9.7 | 57.45
Neigh   | 0.006688   | 0.0068382  | 0.0069711  |   0.1 |  0.48
Comm    | 0.14828    | 0.1696     | 0.19128    |   2.5 | 11.99
Output  | 8.6271e-05 | 8.9768e-05 | 9.2333e-05 |   0.0 |  0.01
Modify  | 0          | 0          | 0          |   0.0 |  0.00
Other   |            | 0.07807    |            |       |  5.52

Nlocal:    25.125 ave 38 max 10 min
Histogram: 4 3 8 16 17 25 29 11 10 5
Nghost:    2498.99 ave 2630 max 2425 min
Histogram: 6 36 35 14 5 0 7 10 12 3
Neighs:    7912.68 ave 12791 max 2554 min
Histogram: 6 4 11 18 19 23 14 19 7 7

Total # of neighbors = 1012823
Ave neighs/atom = 314.933
Ave special neighs/atom = 1.86567
Neighbor list builds = 21
Dangerous builds = 0
reset_timestep 0

# initializing velocities
velocity all create ${Temp} ${RandomSeed}
velocity all create 298 ${RandomSeed}
velocity all create 298 200

# rate of writing thermal properties to the log file
thermo ${Nf}
thermo 10000

#################### 1) Initialize the NPT ensemble ####################
# applying the shake algorithm for rigid molecules and the NPT solver
fix constrain all shake 1.0e-6 1000 0 b 1 a 1
  0 = # of size 2 clusters
  0 = # of size 3 clusters
  0 = # of size 4 clusters
  1000 = # of frozen angles
fix integrate all npt temp ${Temp} ${Temp} 10.0 iso ${Pres} ${Pres} 100.0
fix integrate all npt temp 298 ${Temp} 10.0 iso ${Pres} ${Pres} 100.0
fix integrate all npt temp 298 298 10.0 iso ${Pres} ${Pres} 100.0
fix integrate all npt temp 298 298 10.0 iso 1 ${Pres} 100.0
fix integrate all npt temp 298 298 10.0 iso 1 1 100.0


# Initializing the whole system with very small timesteps in the NPT ensemble
timestep 0.001
run ${Ninptpre}
run 10000
PPPM initialization ...
  extracting TIP4P info from pair style
  using 12-bit tables for long-range coulomb (../kspace.cpp:321)
  G vector (1/distance) = 0.31012
  grid = 32 32 32
  stencil order = 5
  estimated absolute RMS force accuracy = 0.00343213
  estimated relative force accuracy = 1.03358e-05
  using double precision FFTs
  3d grid and FFT values/proc = 2475 256
Per MPI rank memory allocation (min/avg/max) = 7.942 | 8.1 | 8.207 Mbytes
Step Temp E_pair E_mol TotEng Press Volume 
       0    432.53725   -26835.306            0   -23979.481   -871495.31    40385.253 
   10000    176.70523   -25209.279            0   -24042.584    1219.2118    40091.093 
Loop time of 9.56917 on 128 procs for 10000 steps with 3216 atoms

Performance: 0.090 ns/day, 265.810 hours/ns, 1045.022 timesteps/s
99.4% CPU use with 128 MPI tasks x no OpenMP threads

MPI task timing breakdown:
Section |  min time  |  avg time  |  max time  |%varavg| %total
---------------------------------------------------------------
Pair    | 0.63669    | 2.3157     | 3.8828     |  46.4 | 24.20
Bond    | 0.00093523 | 0.0011677  | 0.0017838  |   0.5 |  0.01
Kspace  | 3.3992     | 5.032      | 6.7015     |  31.7 | 52.59
Neigh   | 0          | 0          | 0          |   0.0 |  0.00
Comm    | 0.79109    | 0.9323     | 1.0573     |   6.6 |  9.74
Output  | 8.4117e-05 | 8.8048e-05 | 9.2152e-05 |   0.0 |  0.00
Modify  | 1.0885     | 1.1582     | 1.2136     |   2.9 | 12.10
Other   |            | 0.1297     |            |       |  1.36

Nlocal:    25.125 ave 37 max 9 min
Histogram: 2 2 7 13 12 30 30 15 10 7
Nghost:    2499.99 ave 2630 max 2423 min
Histogram: 3 37 33 18 4 1 8 10 11 3
Neighs:    7913.66 ave 12834 max 2240 min
Histogram: 4 5 8 15 24 23 18 16 8 7

Total # of neighbors = 1012948
Ave neighs/atom = 314.971
Ave special neighs/atom = 1.86567
Neighbor list builds = 0
Dangerous builds = 0
timestep 0.01
run ${Ninptpre}
run 10000
PPPM initialization ...
  extracting TIP4P info from pair style
  using 12-bit tables for long-range coulomb (../kspace.cpp:321)
  G vector (1/distance) = 0.310296
  grid = 32 32 32
  stencil order = 5
  estimated absolute RMS force accuracy = 0.00340732
  estimated relative force accuracy = 1.0261e-05
  using double precision FFTs
  3d grid and FFT values/proc = 2475 256
Per MPI rank memory allocation (min/avg/max) = 7.942 | 8.102 | 8.207 Mbytes
Step Temp E_pair E_mol TotEng Press Volume 
   10000    176.70523   -25209.279            0   -24042.583   -132833.86    40091.093 
   20000    297.89025   -23936.769            0    -21969.95   -703.46799    40065.513 
Loop time of 9.99363 on 128 procs for 10000 steps with 3216 atoms

Performance: 0.865 ns/day, 27.760 hours/ns, 1000.637 timesteps/s
99.4% CPU use with 128 MPI tasks x no OpenMP threads

MPI task timing breakdown:
Section |  min time  |  avg time  |  max time  |%varavg| %total
---------------------------------------------------------------
Pair    | 0.68466    | 2.311      | 3.6504     |  44.1 | 23.12
Bond    | 0.00094531 | 0.0011915  | 0.002154   |   0.5 |  0.01
Kspace  | 4.0161     | 5.4016     | 7.0436     |  28.9 | 54.05
Neigh   | 0.0012407  | 0.0012705  | 0.0013007  |   0.0 |  0.01
Comm    | 0.79565    | 0.92512    | 1.0466     |   6.4 |  9.26
Output  | 8.568e-05  | 9.0295e-05 | 9.3144e-05 |   0.0 |  0.00
Modify  | 1.1565     | 1.2248     | 1.2697     |   2.4 | 12.26
Other   |            | 0.1286     |            |       |  1.29

Nlocal:    25.125 ave 38 max 10 min
Histogram: 2 4 9 19 12 28 25 18 9 2
Nghost:    2504.44 ave 2620 max 2424 min
Histogram: 5 15 36 32 7 1 5 10 12 5
Neighs:    7921.77 ave 12576 max 2617 min
Histogram: 4 5 9 21 20 16 22 17 7 7

Total # of neighbors = 1013986
Ave neighs/atom = 315.294
Ave special neighs/atom = 1.86567
Neighbor list builds = 4
Dangerous builds = 0
timestep 0.1
run ${Ninptpre}
run 10000
PPPM initialization ...
  extracting TIP4P info from pair style
  using 12-bit tables for long-range coulomb (../kspace.cpp:321)
  G vector (1/distance) = 0.310311
  grid = 32 32 32
  stencil order = 5
  estimated absolute RMS force accuracy = 0.00340516
  estimated relative force accuracy = 1.02545e-05
  using double precision FFTs
  3d grid and FFT values/proc = 2475 256
Per MPI rank memory allocation (min/avg/max) = 7.943 | 8.11 | 8.207 Mbytes
Step Temp E_pair E_mol TotEng Press Volume 
   20000    297.89025   -23936.769            0    -21969.95   -16694.284    40065.513 
   30000    298.94821   -24168.217            0   -22194.414    300.39974    34697.827 
Loop time of 9.53112 on 128 procs for 10000 steps with 3216 atoms

Performance: 9.065 ns/day, 2.648 hours/ns, 1049.195 timesteps/s
99.4% CPU use with 128 MPI tasks x no OpenMP threads

MPI task timing breakdown:
Section |  min time  |  avg time  |  max time  |%varavg| %total
---------------------------------------------------------------
Pair    | 1.2799     | 2.5859     | 3.5536     |  30.9 | 27.13
Bond    | 0.00095723 | 0.0011971  | 0.0018558  |   0.5 |  0.01
Kspace  | 3.5474     | 4.5404     | 5.8422     |  23.2 | 47.64
Neigh   | 0.014747   | 0.01503    | 0.015313   |   0.1 |  0.16
Comm    | 0.91885    | 1.0274     | 1.1446     |   5.4 | 10.78
Output  | 8.4958e-05 | 9.0066e-05 | 9.3605e-05 |   0.0 |  0.00
Modify  | 1.1533     | 1.2349     | 1.278      |   2.7 | 12.96
Other   |            | 0.1262     |            |       |  1.32

Nlocal:    25.125 ave 34 max 14 min
Histogram: 1 6 5 12 15 26 26 22 10 5
Nghost:    2831.05 ave 2877 max 2784 min
Histogram: 6 8 5 29 25 6 19 12 12 6
Neighs:    9085.86 ave 13062 max 5208 min
Histogram: 5 8 12 19 16 26 23 10 6 3

Total # of neighbors = 1162990
Ave neighs/atom = 361.626
Ave special neighs/atom = 1.86567
Neighbor list builds = 48
Dangerous builds = 0
timestep 0.2
run ${Ninptpre}
run 10000
PPPM initialization ...
  extracting TIP4P info from pair style
  using 12-bit tables for long-range coulomb (../kspace.cpp:321)
  G vector (1/distance) = 0.309115
  grid = 30 30 30
  stencil order = 5
  estimated absolute RMS force accuracy = 0.00394119
  estimated relative force accuracy = 1.18688e-05
  using double precision FFTs
  3d grid and FFT values/proc = 2475 256
Per MPI rank memory allocation (min/avg/max) = 7.947 | 8.162 | 8.216 Mbytes
Step Temp E_pair E_mol TotEng Press Volume 
   30000    298.94821   -24168.235            0   -22194.431    1325.4264    34697.827 
   40000    296.94093   -24337.045            0   -22376.494    760.29358    34040.508 
Loop time of 9.48692 on 128 procs for 10000 steps with 3216 atoms

Performance: 18.215 ns/day, 1.318 hours/ns, 1054.083 timesteps/s
99.4% CPU use with 128 MPI tasks x no OpenMP threads

MPI task timing breakdown:
Section |  min time  |  avg time  |  max time  |%varavg| %total
---------------------------------------------------------------
Pair    | 1.7803     | 2.773      | 3.6241     |  22.2 | 29.23
Bond    | 0.00096904 | 0.0012101  | 0.001968   |   0.5 |  0.01
Kspace  | 3.382      | 4.2322     | 5.2305     |  17.7 | 44.61
Neigh   | 0.030657   | 0.031201   | 0.031759   |   0.2 |  0.33
Comm    | 0.97816    | 1.0995     | 1.2261     |   5.2 | 11.59
Output  | 8.9267e-05 | 9.4016e-05 | 9.7462e-05 |   0.0 |  0.00
Modify  | 0.97362    | 1.1836     | 1.2851     |   6.6 | 12.48
Other   |            | 0.1661     |            |       |  1.75

Nlocal:    25.125 ave 36 max 18 min
Histogram: 4 9 30 28 18 19 15 3 1 1
Nghost:    2871.87 ave 2917 max 2836 min
Histogram: 1 11 16 30 20 28 9 10 2 1
Neighs:    9273.88 ave 12829 max 6211 min
Histogram: 6 12 17 15 22 15 25 7 5 4

Total # of neighbors = 1187057
Ave neighs/atom = 369.11
Ave special neighs/atom = 1.86567
Neighbor list builds = 98
Dangerous builds = 0
timestep 0.5
run ${Ninptpre}
run 10000
PPPM initialization ...
  extracting TIP4P info from pair style
  using 12-bit tables for long-range coulomb (../kspace.cpp:321)
  G vector (1/distance) = 0.309577
  grid = 30 30 30
  stencil order = 5
  estimated absolute RMS force accuracy = 0.00386695
  estimated relative force accuracy = 1.16452e-05
  using double precision FFTs
  3d grid and FFT values/proc = 2475 256
Per MPI rank memory allocation (min/avg/max) = 7.948 | 8.196 | 8.217 Mbytes
Step Temp E_pair E_mol TotEng Press Volume 
   40000    296.94093   -24337.045            0   -22376.495     2104.292    34040.508 
   50000    299.06458   -24536.123            0   -22561.551    1017.7438    33442.244 
Loop time of 10.1246 on 128 procs for 10000 steps with 3216 atoms

Performance: 42.668 ns/day, 0.562 hours/ns, 987.691 timesteps/s
99.4% CPU use with 128 MPI tasks x no OpenMP threads

MPI task timing breakdown:
Section |  min time  |  avg time  |  max time  |%varavg| %total
---------------------------------------------------------------
Pair    | 1.9898     | 2.819      | 3.6221     |  20.7 | 27.84
Bond    | 0.00099288 | 0.0011908  | 0.002019   |   0.5 |  0.01
Kspace  | 3.8902     | 4.7252     | 5.5644     |  15.9 | 46.67
Neigh   | 0.07536    | 0.077038   | 0.078851   |   0.5 |  0.76
Comm    | 1.0025     | 1.1244     | 1.2493     |   5.4 | 11.11
Output  | 8.594e-05  | 9.049e-05  | 0.00010452 |   0.0 |  0.00
Modify  | 1.0282     | 1.2293     | 1.3252     |   6.3 | 12.14
Other   |            | 0.1485     |            |       |  1.47

Nlocal:    25.125 ave 33 max 17 min
Histogram: 1 8 7 25 14 29 28 7 7 2
Nghost:    2892.84 ave 2933 max 2862 min
Histogram: 12 13 9 18 29 16 16 7 4 4
Neighs:    9335.37 ave 13799 max 5372 min
Histogram: 2 7 17 23 26 22 19 8 1 3

Total # of neighbors = 1194927
Ave neighs/atom = 371.557
Ave special neighs/atom = 1.86567
Neighbor list builds = 236
Dangerous builds = 0
reset_timestep 0

# continuing the initialization with the final value of timestep
unfix integrate
fix integrate all npt temp ${Temp} ${Temp} 100.0 iso ${Pres} ${Pres} 1000.0
fix integrate all npt temp 298 ${Temp} 100.0 iso ${Pres} ${Pres} 1000.0
fix integrate all npt temp 298 298 100.0 iso ${Pres} ${Pres} 1000.0
fix integrate all npt temp 298 298 100.0 iso 1 ${Pres} 1000.0
fix integrate all npt temp 298 298 100.0 iso 1 1 1000.0
#fix integrate all rigid/npt/small molecule temp ${Temp} ${Temp} 100.0 iso ${Pres} ${Pres} 1000.0

timestep ${tstep}
timestep 2
run ${Ninpt}
run 5000000
PPPM initialization ...
  extracting TIP4P info from pair style
  using 12-bit tables for long-range coulomb (../kspace.cpp:321)
  G vector (1/distance) = 0.310004
  grid = 30 30 30
  stencil order = 5
  estimated absolute RMS force accuracy = 0.00379941
  estimated relative force accuracy = 1.14418e-05
  using double precision FFTs
  3d grid and FFT values/proc = 2475 256
Per MPI rank memory allocation (min/avg/max) = 7.951 | 8.206 | 8.217 Mbytes
Step Temp E_pair E_mol TotEng Press Volume 
       0    299.06458   -24536.122            0   -22561.549    293.59208    33442.244 
   10000    303.21399   -24495.921            0   -22493.952   -64.653537    33852.526 
   20000    301.06594   -24504.965            0   -22517.179    33.325994    34451.076 
   30000    308.21853   -24436.823            0   -22401.812    260.01331    33680.822 
   40000    295.62259   -24518.862            0   -22567.015    894.73047    33390.344 
   50000    290.64048   -24460.919            0   -22541.966   -355.24753    33883.235 
   60000    297.57483   -24481.132            0   -22516.396    428.51849    33795.709 
   70000    304.16719   -24518.218            0   -22509.956    165.80765    33825.575 
   80000    299.09324   -24429.018            0   -22454.256   -745.48372     34339.16 
   90000    289.29796   -24487.019            0    -22576.93    679.86518    33365.523 
  100000    291.68318   -24417.559            0   -22491.723   -429.75098    34039.929 
  110000    290.28634   -24572.147            0   -22655.533    328.72899    33454.706 
  120000    296.53909   -24553.867            0   -22595.969   -674.42442    34104.893 
  130000    301.59322   -24441.311            0   -22450.043    313.52444    33794.777 
  140000     302.2962   -24514.397            0   -22518.488   -322.46389    33876.675 
  150000    298.97943   -24484.008            0   -22509.998   -94.042692    33995.249 
  160000    299.12924   -24511.202            0   -22536.203   -69.624761    33941.738 
  170000    299.68429   -24500.587            0   -22521.923    217.78075    33518.957 
  180000    299.39603   -24533.281            0    -22556.52    832.58981    33566.096 
  190000     296.5972   -24538.821            0    -22580.54   -969.55526    33917.541 
  200000       293.18     -24554.4            0    -22618.68    359.19634    34007.202 
  210000    299.21394   -24558.424            0   -22582.866   -65.369702    34063.238 
  220000    297.95398   -24433.298            0   -22466.059    421.28313    34111.209 
  230000    288.94337    -24446.28            0   -22538.533    718.64343    33317.561 
  240000    287.41398   -24501.553            0   -22603.904    1247.3336    33572.182 
  250000    295.77358   -24497.595            0   -22544.752   -265.73037    33826.635 
  260000    300.05384   -24400.015            0   -22418.912    77.810853    33689.882 
  270000    297.33007   -24506.704            0   -22543.583    543.22983    33369.207 
  280000    302.44508   -24428.373            0   -22431.481   -238.14129    33916.611 
  290000    297.59472   -24592.362            0   -22627.495    315.79777    33588.429 
  300000    286.84525   -24503.178            0   -22609.284   -396.17776    33702.025 
  310000    295.82787   -24506.756            0   -22553.554    311.89368    33464.148 
  320000     301.7467   -24516.094            0   -22523.813    479.69049    33704.666 
  330000    305.54729   -24593.752            0   -22576.378   -9.9875449    33820.645 
  340000    290.82788   -24539.636            0   -22619.447   -635.27943     34289.86 
  350000    296.47578   -24434.341            0   -22476.861    86.397713    33840.398 
  360000    302.56031   -24530.364            0   -22532.712   -373.23067    33860.209 
  370000    304.50638   -24483.406            0   -22472.905    1282.2159    33615.068 
  380000    300.19416   -24358.497            0   -22376.467    31.072798    34034.675 
  390000    297.44578   -24512.748            0   -22548.864   -845.47712    33734.012 
  400000    295.40371   -24529.016            0   -22578.614     138.8385    34066.599 
  410000    296.98369   -24491.389            0   -22530.556    833.52794    33953.389 
  420000    295.59754   -24557.171            0    -22605.49   -527.08868    33894.968 
  430000    294.88144    -24519.24            0   -22572.287   -18.944545    33774.425 
  440000    300.02093   -24546.472            0   -22565.585    783.11681    33694.951 
  450000    294.90689   -24578.757            0   -22631.636   -450.38647    33578.579 
  460000    296.77598   -24578.654            0   -22619.192    275.33613    33861.393 
  470000    301.77721   -24515.837            0   -22523.355   -307.12018    34341.704 
  480000    299.43279   -24527.957            0   -22550.954    222.93775    33949.995 
  490000    299.35509   -24542.477            0   -22565.987   -804.90499    34256.388 
  500000    304.10565   -24461.639            0   -22453.783   -418.17375    33805.562 
  510000    307.52971   -24424.009            0   -22393.546   -656.05348    34117.698 
  520000    296.34797   -24505.755            0   -22549.119    904.51427    33953.993 
  530000    308.82036   -24649.435            0    -22610.45    398.26031    33572.692 
  540000    289.55664   -24506.423            0   -22594.626   -965.14928    34203.709 
  550000    297.69252   -24502.743            0    -22537.23    353.81302    34163.375 
  560000    310.59647   -24516.275            0   -22465.564    -102.6339    33915.154 
  570000    298.45028   -24511.362            0   -22540.846     432.1942     34179.66 
  580000    307.88111   -24478.596            0   -22445.813   -457.76111    33845.381 
  590000    301.83859   -24440.681            0   -22447.794   -119.34935    33341.654 
  600000    291.53761   -24520.405            0    -22595.53    72.926871    34060.035 
  610000    303.36984   -24516.874            0   -22513.876   -1328.2303    34049.895 
  620000    293.47788   -24473.969            0   -22536.283   -287.69017    33964.183 
  630000    301.53553   -24480.272            0   -22489.386    70.994948    33919.362 
  640000    301.33407   -24533.074            0   -22543.518   -78.334682    33594.629 
  650000    295.25611    -24535.47            0   -22586.043   -111.94469    34422.833 
  660000    294.99499   -24513.455            0   -22565.752    315.85077    33718.678 
  670000    293.56769   -24438.508            0   -22500.229    475.08509    33926.599 
  680000     301.3429   -24627.026            0   -22637.411   -703.16854    34169.992 
  690000    302.54977   -24449.089            0   -22451.506   -157.15825    34060.045 
  700000    308.73416   -24424.135            0   -22385.719    601.45268    33883.269 
  710000    305.37118   -24460.249            0   -22444.037    137.75839    34033.115 
  720000    298.34086   -24471.184            0    -22501.39    495.12045     33795.69 
  730000    288.77222   -24533.104            0   -22626.487   -24.779131    33378.929 
  740000    306.35231   -24381.774            0   -22359.085   -1205.6005    34272.793 
  750000    304.54138   -24431.218            0   -22420.485    198.88531    33747.493 
  760000    292.28045   -24473.416            0   -22543.636    361.38214    33729.227 
  770000    300.90076     -24555.8            0   -22569.104    209.84684    33562.842 
  780000    302.45231   -24408.077            0   -22411.137   -358.68307      34072.9 
  790000    300.14173   -24395.586            0   -22413.902   -1412.3711    34193.539 
  800000    286.93759   -24554.126            0   -22659.623    780.29446    33738.713 
  810000    300.20007   -24504.308            0   -22522.238    16.988498    34152.905 
  820000    298.82083   -24537.467            0   -22564.504   -325.02632    33786.387 
  830000    293.41414   -24545.996            0   -22608.731     47.82197    33867.325 
  840000    308.13358   -24487.825            0   -22453.375   -344.09183      33832.5 
  850000     299.1794   -24454.707            0   -22479.376   -79.726674    33336.304 
  860000    303.32315   -24469.476            0   -22466.787    443.91118     33807.74 
  870000    302.44569   -24481.524            0   -22484.628     154.1912    33818.702 
  880000    296.17849   -24498.028            0   -22542.511   -660.99124    34167.558 
  890000    297.55501   -24495.248            0   -22530.642   -74.939666    34209.735 
  900000    301.97011   -24504.309            0   -22510.553   -195.17917    33771.698 
  910000     298.0978   -24520.217            0   -22552.028    612.90617    33598.554 
  920000    302.67996   -24436.729            0   -22438.287    -34.26338      33688.5 
  930000    297.38807   -24499.253            0    -22535.75   -601.85301    33960.711 
  940000    298.47641   -24568.632            0   -22597.944    775.46002    33627.867 
  950000    292.42168   -24578.928            0   -22648.216    356.74033    33779.588 
  960000    297.96406   -24489.094            0   -22521.788    866.13924    33804.637 
  970000    302.79131   -24502.194            0   -22503.016    688.75249    33587.215 
  980000    291.89294   -24566.644            0   -22639.423   -235.35274     33756.08 
  990000    298.09578   -24463.677            0   -22495.501    173.64289    33915.367 
 1000000    295.48023   -24544.478            0   -22593.572    237.67639    33705.221 
 1010000    300.78618   -24394.395            0   -22408.456    268.02387    34071.523 
 1020000    296.92973   -24486.961            0   -22526.485    88.965256    33335.185 
 1030000    299.09712   -24491.089            0   -22516.302    184.44887    33917.367 
 1040000    292.16709    -24501.93            0   -22572.898   -145.79846    33886.047 
 1050000    289.05577   -24593.148            0   -22684.659    724.80538    33845.531 
 1060000    293.27489   -24469.313            0   -22532.967   -44.152494    33823.896 
 1070000    297.61919   -24429.008            0   -22463.979   -133.07317    34061.647 
 1080000    299.87643    -24526.83            0   -22546.897   -536.13679    33699.601 
 1090000    292.17476   -24447.988            0   -22518.906   -13.419554    33895.219 
 1100000    292.56184   -24602.517            0   -22670.879    252.77611    33539.523 
 1110000    295.34154   -24514.179            0   -22564.188    196.20226    34028.527 
 1120000    290.21001   -24437.015            0   -22520.905   -2.5018127    34088.614 
 1130000    304.42115   -24396.307            0   -22386.368   -468.01542    34291.413 
 1140000    296.41174   -24562.083            0   -22605.027    489.98378    33608.479 
 1150000    293.95528   -24549.991            0   -22609.153     52.89121    33850.297 
 1160000    298.80844   -24466.306            0   -22493.425   -709.99311    34355.792 
 1170000    304.80266   -24551.248            0    -22538.79   -534.85457     34260.74 
 1180000    290.89671   -24451.958            0   -22531.314   -119.38335    34039.367 
 1190000    305.77436    -24485.72            0   -22466.847     890.0792    33837.726 
 1200000    298.83083   -24461.959            0    -22488.93    -329.9881    34152.195 
 1210000    300.48882   -24619.913            0   -22635.937    118.74287    33771.813 
 1220000    298.16679   -24439.893            0   -22471.249   -389.77743    33907.759 
 1230000    293.87773   -24504.719            0   -22564.393     342.9175    33644.623 
 1240000    295.55168   -24511.696            0   -22560.317    117.95127     33904.35 
 1250000    299.96684   -24499.456            0   -22518.927    222.01761     33834.64 
 1260000    291.78298   -24512.244            0   -22585.749     102.9365    33682.279 
 1270000    303.35484     -24460.9            0   -22458.002    623.00718    33792.904 
 1280000    294.80026   -24537.854            0   -22591.437    220.58961    33811.103 
 1290000    296.16589   -24449.906            0   -22494.473    420.70973    33560.658 
 1300000    296.11091   -24491.477            0   -22536.406     114.7264    33863.647 
 1310000    294.21727   -24425.666            0   -22483.098   -356.39884    34203.062 
 1320000    289.80059   -24436.498            0   -22523.091   -412.75618    34178.057 
 1330000    309.56399   -24429.046            0   -22385.152   -487.33328     34221.05 
 1340000    306.36709   -24544.224            0   -22521.437    813.04478    33892.735 
 1350000    291.80207   -24488.396            0   -22561.774    -250.8533    33899.641 
 1360000    297.32496   -24505.442            0   -22542.356    111.71386    34045.873 
 1370000     302.0017   -24377.089            0   -22383.125   -960.23984    34361.883 
 1380000    291.69279   -24467.309            0   -22541.409    -764.7212    34232.826 
 1390000     293.6788    -24496.35            0   -22557.338   -434.61756     34315.51 
 1400000    292.62636   -24503.877            0   -22571.813   -120.88158    34105.415 
 1410000    304.17902   -24533.779            0   -22525.439   -434.28864    33986.201 
 1420000    292.27912   -24586.802            0   -22657.031   -27.890818    34010.635 
 1430000     292.3655   -24464.971            0   -22534.629    156.16576    33972.186 
 1440000    302.21591   -24460.756            0   -22465.377    317.98546    33810.985 
 1450000    300.87152   -24513.308            0   -22526.805   -131.62425    33596.696 
 1460000    306.75647   -24531.665            0   -22506.307    742.44874    33637.413 
 1470000    303.45695   -24534.137            0   -22530.564    778.79367    33886.561 
 1480000    301.35475   -24457.921            0   -22468.228   -839.98692    34003.239 
 1490000    303.98737   -24485.343            0   -22478.268   -795.92422    34209.283 
 1500000    296.76444    -24535.04            0   -22575.654    13.506106    33765.499 
 1510000    295.21094   -24554.739            0    -22605.61   -334.52382    33955.828 
 1520000    296.46114   -24459.098            0   -22501.715    -339.1864    34038.901 
 1530000    302.56033   -24522.323            0    -22524.67    23.086475    34044.177 
 1540000    293.18142   -24565.802            0   -22630.074    1136.7587    33653.245 
 1550000    299.59184   -24474.749            0   -22496.695    56.807154    33915.874 
 1560000    292.52803   -24521.064            0   -22589.649    41.904935    33772.045 
 1570000    297.45447   -24566.109            0   -22602.168    640.80481    34142.938 
 1580000    296.65528   -24505.372            0   -22546.707    185.96274    33885.576 
 1590000    288.76107   -24549.931            0   -22643.388    -819.2792    33986.161 
 1600000    291.46625   -24368.476            0   -22444.072   -585.51927    34353.615 
 1610000    298.11366   -24471.712            0   -22503.418    650.03044    33747.153 
 1620000    298.53774    -24458.34            0   -22487.246   -22.711547    34062.182 
 1630000    299.72841   -24471.042            0   -22492.087    585.82189    33893.709 
 1640000     292.9353   -24476.691            0   -22542.588    114.91536    34041.175 
 1650000    298.14307   -24457.651            0   -22489.163    244.01846    33886.001 
 1660000    300.56964   -24490.408            0   -22505.899     422.7058    33569.053 
 1670000    287.56687   -24516.907            0   -22618.248    205.87154    33566.237 
 1680000    295.16147   -24567.744            0   -22618.942    768.53354    33368.761 
 1690000    292.60393   -24462.584            0   -22530.668     521.3665    33746.729 
 1700000    293.34234   -24475.641            0    -22538.85   -495.18323    33900.887 
 1710000    294.29405   -24391.271            0   -22448.197   -108.67368    34168.655 
 1720000    303.77382   -24454.883            0   -22449.218    272.35913    33805.575 
 1730000     286.7039   -24577.485            0   -22684.524   -35.253944    33504.336 
 1740000    302.85753   -24504.562            0   -22504.947   -492.71678    34106.759 
 1750000    288.30559   -24498.646            0    -22595.11    147.29748    33913.992 
 1760000    286.53008   -24500.913            0     -22609.1   -341.08207    34071.093 
 1770000    308.25712   -24488.914            0   -22453.649    560.51232    34171.518 
 1780000    295.50802   -24479.317            0   -22528.227    369.94397    33564.202 
 1790000    294.25536   -24595.503            0   -22652.683    168.24491    33614.208 
 1800000    300.49749   -24480.592            0   -22496.559    594.46417    33653.038 
 1810000    308.57936   -24562.883            0    -22525.49   -73.166573    34012.788 
 1820000    296.53527   -24495.279            0   -22537.406   -253.29627    33979.944 
 1830000    298.53774   -24449.978            0   -22478.884    35.535733    33830.482 
 1840000    301.23367   -24527.601            0   -22538.707   -279.77833     33710.46 
 1850000    309.00994   -24494.422            0   -22454.186   -236.29627    34278.363 
 1860000    296.70699   -24486.857            0   -22527.851    165.96342    33785.353 
 1870000     303.5893   -24463.484            0   -22459.038    454.28219    34013.696 
 1880000    302.41435   -24503.125            0   -22506.436    10.067066    33971.757 
 1890000    296.77603   -24526.422            0    -22566.96   -241.56507    33892.168 
 1900000    310.79324   -24565.052            0   -22513.041   -873.21772    34078.708 
 1910000    298.79206   -24523.777            0   -22551.005    585.54214    33867.728 
 1920000    299.79503   -24558.727            0   -22579.332    406.10925    33664.853 
 1930000    309.55871   -24499.051            0   -22455.192    883.59303    33344.749 
 1940000    293.92216   -24515.426            0   -22574.807   -843.48002    34201.153 
 1950000    305.12042   -24509.049            0   -22494.493    158.04087    34004.949 
 1960000    299.65188   -24428.846            0   -22450.396    149.14723    33962.373 
 1970000    300.03894   -24579.108            0   -22598.103    296.41594    33761.877 
 1980000     290.8883   -24529.199            0    -22608.61   -390.68078    33908.072 
 1990000    295.93095   -24417.031            0   -22463.148   -44.182954    33975.063 
 2000000    287.56243   -24513.477            0   -22614.848   -240.13628    33875.659 
 2010000      296.062   -24583.682            0   -22628.934    1072.7645    33746.651 
 2020000    297.00797   -24442.005            0   -22481.012    56.292956     34068.87 
 2030000    301.85754   -24569.713            0   -22576.701   -313.68896    33966.112 
 2040000    287.69397    -24577.18            0   -22677.682   -541.31504     33668.67 
 2050000    297.21565    -24473.65            0   -22511.285    618.18315    33701.356 
 2060000    288.54191   -24522.668            0   -22617.572   -607.95665    33725.146 
 2070000    296.44661    -24493.02            0   -22535.733   -881.30209    33688.136 
 2080000    288.62482   -24592.742            0   -22687.099    132.42164    33710.483 
 2090000     298.7595    -24532.43            0   -22559.872     168.6397     33442.65 
 2100000    290.89832   -24528.288            0   -22607.634    748.97445    33376.095 
 2110000     293.5427   -24480.515            0   -22542.401    470.21439    33593.456 
 2120000      305.803   -24464.804            0   -22445.742    294.22903    33717.604 
 2130000    291.25446    -24497.81            0   -22574.804   -373.57468    33711.961 
 2140000    290.96697   -24509.364            0   -22588.256      -1508.5    34405.438 
 2150000     291.7216   -24461.326            0   -22535.236    788.42457    33558.367 
 2160000    296.69829   -24540.409            0    -22581.46   -250.60963     33487.37 
 2170000     301.8605   -24463.619            0   -22470.587    86.921275     34005.35 
 2180000    297.80424    -24480.22            0   -22513.969    -662.1846    33913.998 
 2190000    301.82253   -24578.176            0   -22585.395    722.92559    33559.118 
 2200000    283.77353   -24420.951            0   -22547.338    290.87826    33746.253 
 2210000    309.33056   -24447.529            0   -22405.176     398.2168    33978.985 
 2220000    292.90479   -24486.024            0   -22552.122   -526.18125    33847.597 
 2230000    289.79582   -24617.606            0   -22704.231   -1040.4027    34095.921 
 2240000    300.75653   -24574.555            0   -22588.812    300.25805    33480.128 
 2250000    299.55059   -24577.379            0   -22599.598    1051.6966    33360.388 
 2260000    298.92851   -24595.187            0   -22621.513   -92.461913    33674.381 
 2270000    301.00682   -24545.122            0   -22557.726   -480.80437    33738.411 
 2280000    304.86622   -24498.387            0   -22485.509   -66.405662    33717.788 
 2290000    294.70431   -24536.766            0   -22590.982   -279.29708    33977.584 
 2300000    295.95182   -24579.122            0   -22625.101    45.736803    33892.491 
 2310000    307.21609   -24541.972            0   -22513.579   -616.20968     33774.02 
 2320000    302.00822   -24395.084            0   -22401.076    -329.2603    34171.402 
 2330000    300.48704   -24444.979            0   -22461.015    47.330687    33958.213 
 2340000    290.37867   -24597.772            0   -22680.549      538.143    33623.088 
 2350000    293.86654   -24511.348            0   -22571.096    321.64265    33600.209 
 2360000     298.3517   -24492.695            0    -22522.83    1000.8889    33659.919 
 2370000    293.04322   -24518.561            0   -22583.745    867.27387    33333.875 
 2380000    303.93612   -24502.298            0   -22495.562    243.48434    33634.819 
 2390000    291.48686   -24376.176            0   -22451.636   -442.36163    34042.111 
 2400000    298.24751   -24528.684            0   -22559.507    442.33949    33843.015 
 2410000    292.47979   -24470.117            0   -22539.021    845.37402    33674.863 
 2420000    293.30169   -24449.434            0   -22512.912    298.49697    34007.384 
 2430000     294.1972   -24462.274            0   -22519.839    190.12188    34145.226 
 2440000    304.35207   -24493.531            0   -22484.049    -239.9733    34150.445 
 2450000    284.68395   -24539.094            0    -22659.47    309.87443    33642.218 
 2460000     295.5486   -24387.009            0   -22435.651   -270.15377    34056.532 
 2470000    290.23855   -24551.273            0   -22634.974   -373.60875    34021.143 
 2480000     294.5671     -24463.3            0   -22518.423      350.596    34025.908 
 2490000    299.35643   -24439.258            0   -22462.759   -355.08324    33622.219 
 2500000    298.72687   -24497.509            0   -22525.166   -665.43912    34065.782 
 2510000    295.93359   -24419.739            0   -22465.839    906.38165    33580.125 
 2520000    299.37238   -24506.507            0   -22529.902    8.8035415    33832.027 
 2530000     296.5257   -24564.686            0   -22606.877    -181.1762    33796.727 
 2540000     298.0813   -24502.462            0   -22534.382   -22.535355    33935.706 
 2550000    307.23924   -24540.211            0   -22511.666   -231.92109      33537.1 
 2560000    297.72485   -24510.412            0   -22544.685    312.93336    33802.336 
 2570000    298.82385   -24415.853            0    -22442.87    -757.8805    33806.489 
 2580000    302.81039   -24471.485            0   -22472.182   -12.978048    33549.792 
 2590000    301.66393   -24616.035            0   -22624.301    71.174192    33648.973 
 2600000    299.71237   -24440.575            0   -22461.726   -415.16875    34211.489 
 2610000    297.55259    -24501.81            0   -22537.221    769.34177     33574.37 
 2620000    291.61026   -24506.018            0   -22580.663    381.42275    33937.569 
 2630000    299.60639   -24417.705            0   -22439.555   -484.80066    34035.404 
 2640000    301.44149   -24520.623            0   -22530.357    417.64138    33529.132 
 2650000    299.06079   -24535.083            0   -22560.536   -3.7303158    33917.648 
 2660000    293.67695   -24501.777            0   -22562.776    306.52013    33656.755 
 2670000    300.34766   -24417.048            0   -22434.005    913.06328      33030.7 
 2680000    308.12833   -24545.854            0   -22511.438     -322.638    33622.149 
 2690000    293.06579   -24429.466            0     -22494.5    409.22253    33565.392 
 2700000    293.70007   -24502.097            0   -22562.944   -295.12172    33788.361 
 2710000    295.87695    -24637.53            0   -22684.004    439.27023    33862.097 
 2720000    295.36543   -24392.233            0   -22442.084    273.45164    34127.364 
 2730000    294.87938   -24549.986            0   -22603.046    15.834616    33851.509 
 2740000    296.02545     -24589.6            0   -22635.094    262.00978    33569.232 
 2750000    301.47926   -24499.572            0   -22509.056    -84.99326    33780.823 
 2760000    300.55849   -24487.309            0   -22502.873    229.17338    33858.742 
 2770000    291.25166   -24495.623            0   -22572.636    358.71666    33762.225 
 2780000    291.57802   -24515.386            0   -22590.243   -279.42427    33768.366 
 2790000      295.645   -24444.971            0   -22492.977   -671.08987    34061.582 
 2800000    297.11317   -24510.908            0   -22549.221    849.48781    33856.675 
 2810000    306.28287   -24515.501            0    -22493.27   -839.33192    34486.895 
 2820000    298.95255   -24501.759            0   -22527.926    15.959228    33848.499 
 2830000    285.03092    -24396.68            0   -22514.765    637.41695    33846.871 
 2840000    298.27377    -24588.95            0   -22619.599     607.3474    33762.717 
 2850000    293.95715   -24507.397            0   -22566.546    666.64262    33861.052 
 2860000    286.43615   -24504.338            0   -22613.145   -339.06246     33909.82 
 2870000    300.19597   -24571.366            0   -22589.324     762.9935    33370.808 
 2880000    298.33326   -24539.039            0   -22569.295   -666.87089     34257.61 
 2890000    290.12432   -24365.364            0    -22449.82   -244.12686    33915.487 
 2900000    295.76138   -24551.929            0   -22599.166    1072.3402    33747.441 
 2910000    302.00859   -24599.995            0   -22605.985    118.36722    33657.537 
 2920000    302.23957   -24401.577            0   -22406.042    6.2363416    34038.999 
 2930000    295.40883   -24545.114            0   -22594.679   -466.04166    34253.172 
 2940000    295.65357    -24620.94            0   -22668.889   -690.58448    33191.232 
 2950000     291.1326   -24501.642            0   -22579.441   -205.56089    33758.902 
 2960000    298.27091   -24458.015            0   -22488.683    141.51514    33802.495 
 2970000    302.51661   -24632.488            0   -22635.124    -146.3651    33765.096 
 2980000    303.93061   -24439.449            0   -22432.748    573.90963    33920.127 
 2990000    296.96175   -24422.965            0   -22462.277   -459.97749    34051.075 
 3000000    297.39898   -24531.721            0   -22568.146    1047.1841    33529.232 
 3010000       299.15   -24530.969            0   -22555.833    76.073564    34261.624 
 3020000    293.14452   -24491.891            0   -22556.406    878.84817    33621.555 
 3030000    287.03103   -24615.334            0   -22720.213   -246.39076    33647.539 
 3040000    297.24622   -24483.834            0   -22521.267   -589.13737    33873.981 
 3050000    298.01195    -24500.02            0   -22532.397   -958.25043    34134.393 
 3060000    304.02055   -24487.034            0    -22479.74    90.435341    33628.189 
 3070000    307.57562   -24511.989            0   -22481.223   -732.09601    33929.024 
 3080000    305.61912   -24504.053            0   -22486.205    267.63367    33849.635 
 3090000    299.07489    -24436.96            0   -22462.319    90.501243     34116.13 
 3100000    300.21827   -24588.143            0   -22605.954   -194.49393    33823.997 
 3110000    303.35585   -24513.917            0   -22511.011    495.60441    33740.439 
 3120000    286.16307   -24459.859            0   -22570.469    -213.9163    33649.085 
 3130000    294.08631   -24587.624            0   -22645.921   -342.50377    34084.275 
 3140000     293.4316   -24452.344            0   -22514.964   -456.30893    34197.077 
 3150000    299.24913   -24674.564            0   -22698.773   -155.81819    33747.175 
 3160000    298.44501    -24426.19            0   -22455.708   -100.59325    34045.565 
 3170000    292.98938   -24519.165            0   -22584.704    662.78596    33566.303 
 3180000     297.4418   -24500.775            0   -22536.917    342.38775    34358.875 
 3190000    299.58092   -24484.251            0    -22506.27    335.79528     33616.38 
 3200000     288.4632   -24507.795            0   -22603.218    156.57977    33413.864 
 3210000    294.24672   -24466.302            0    -22523.54     711.4357    34088.989 
 3220000    302.05851   -24417.869            0   -22423.529   -1035.4705    34398.625 
 3230000     289.2106   -24462.339            0   -22552.827   -99.318374    33692.584 
 3240000     287.7299   -24569.848            0   -22670.113   -268.52508    33985.517 
 3250000    306.93282   -24362.023            0     -22335.5     523.8256    33876.409 
 3260000    303.88134   -24450.529            0   -22444.154   -588.83037     34084.95 
 3270000    295.45771   -24560.692            0   -22609.935    638.51269    33793.223 
 3280000    296.45446    -24625.36            0   -22668.021   -356.75192    33573.639 
 3290000    294.82838   -24470.727            0   -22524.124   -427.78218    33878.923 
 3300000    294.28953   -24530.247            0   -22587.202    505.65587    33306.032 
 3310000    301.88137   -24432.021            0   -22438.851   -456.15289    34201.896 
 3320000    298.34434   -24484.368            0   -22514.552   -209.65806    34175.267 
 3330000    287.08289   -24457.151            0   -22561.688    -473.3013    34163.473 
 3340000    293.56104   -24565.408            0   -22627.173   -45.293499    33804.129 
 3350000    295.51188   -24493.084            0   -22541.968    569.20575    33535.458 
 3360000     299.5203   -24537.319            0   -22559.738     -105.338    33808.019 
 3370000    292.51157   -24440.159            0   -22508.853   -735.69476    34589.487 
 3380000     287.7019   -24580.273            0   -22680.723    740.59854    33388.314 
 3390000    296.92027    -24555.51            0   -22595.096    93.513886     33807.87 
 3400000    294.56152   -24542.722            0   -22597.882   -264.13276    33936.183 
 3410000    304.19035   -24476.482            0   -22468.067    237.38661    33906.353 
 3420000    303.53815    -24486.85            0   -22482.741    515.06547    33688.457 
 3430000    300.34596   -24503.836            0   -22520.803   -200.91939    33740.073 
 3440000    294.98514   -24610.063            0   -22662.425    79.994533    33946.818 
 3450000    307.77597   -24547.361            0   -22515.272   -6.7593686    33681.811 
 3460000    293.01293   -24548.237            0   -22613.621   -140.87461    34116.877 
 3470000    303.05948   -24427.975            0   -22427.027    316.98874    34024.155 
 3480000    298.51597   -24442.969            0   -22472.019   -890.71286    33969.885 
 3490000    298.88578   -24560.219            0   -22586.828    1429.3285    33519.835 
 3500000    297.55811   -24430.454            0   -22465.828    242.08764    33971.946 
 3510000    294.23486   -24469.828            0   -22527.144    121.33603    33786.007 
 3520000    295.29522   -24454.088            0   -22504.403   -134.67717     33962.16 
 3530000    295.82038   -24581.586            0   -22628.434   -123.69998    34073.088 
 3540000    305.84092   -24582.535            0   -22563.222   -219.22423    33785.261 
 3550000     307.1832   -24499.936            0   -22471.761    544.65176    33464.624 
 3560000    290.56986   -24471.559            0   -22553.073   -1327.6327    34372.966 
 3570000    296.42582   -24512.135            0   -22554.985    865.81305    33594.596 
 3580000    294.31296   -24451.816            0   -22508.616    -113.4412    33865.309 
 3590000    291.57587   -24511.794            0   -22586.666   -451.92141    33592.449 
 3600000      298.354   -24479.489            0   -22509.609   -329.88147    34018.335 
 3610000    296.73121   -24539.068            0   -22579.902   -5.4745758    33936.646 
 3620000    305.89222   -24373.998            0   -22354.346   -82.745839    34110.551 
 3630000    300.21311   -24431.583            0   -22449.428    933.50457     33857.89 
 3640000    295.10379   -24416.193            0   -22467.772     266.5734    33477.097 
 3650000    306.17912   -24657.522            0   -22635.976   -61.813687    33871.196 
 3660000    306.20453   -24449.677            0   -22427.963    795.48394    33370.743 
 3670000    298.44165   -24573.136            0   -22602.676    1080.6494    33593.902 
 3680000    295.80827   -24533.121            0   -22580.048    341.86402    33866.892 
 3690000    300.84694   -24478.042            0   -22491.702   -292.35722    33889.694 
 3700000    303.11846   -24536.005            0   -22534.667    330.82157    33992.334 
 3710000    298.29955   -24491.515            0   -22521.993   -787.54982    34279.041 
 3720000    291.81914    -24487.87            0   -22561.136   -47.297637     33564.69 
 3730000    300.66401   -24484.177            0   -22499.044    495.11658    33433.285 
 3740000    296.75862   -24578.921            0   -22619.574   -289.92546    33629.246 
 3750000    296.96129   -24506.802            0   -22546.117    292.33743    34121.589 
 3760000    290.15546   -24592.456            0   -22676.706   -449.84302    33829.077 
 3770000    294.36111    -24438.75            0   -22495.232    468.03435    33733.797 
 3780000    294.11921   -24549.659            0   -22607.739    -1132.292    34319.474 
 3790000     290.7737   -24589.616            0   -22669.784    145.17529    33400.775 
 3800000    299.69913   -24508.888            0   -22530.126   -1391.4219    34208.768 
 3810000    298.06861   -24558.143            0   -22590.147   -149.45615    34091.523 
 3820000     294.4141   -24577.338            0   -22633.471   -1381.2235    34703.862 
 3830000    304.42463   -24493.897            0   -22483.935    419.06615    33749.354 
 3840000    291.43169   -24476.515            0   -22552.339    85.969829    33800.459 
 3850000    302.44294   -24493.912            0   -22497.034   -88.044442    33903.963 
 3860000    292.29214    -24590.63            0   -22660.773    199.19963    33753.662 
 3870000    299.66526   -24467.182            0   -22488.644   -2.2685407    33196.869 
 3880000    307.28821    -24427.08            0   -22398.211    117.12323    34036.067 
 3890000    296.57906   -24502.288            0   -22544.126    1145.6055    33850.976 
 3900000    302.76751   -24500.606            0   -22501.585   -649.50087    33857.528 
 3910000    301.00749   -24434.085            0   -22446.684    1.4665484    34104.514 
 3920000    284.72235   -24499.914            0   -22620.037   -1093.3603    34453.263 
 3930000    297.03713   -24602.309            0   -22641.123    -300.1428    33743.937 
 3940000    301.51943   -24472.098            0   -22481.318   -464.91528    33970.123 
 3950000     291.7824    -24475.62            0   -22549.128    22.499133    33975.506 
 3960000    299.99271   -24548.979            0   -22568.279    795.94187    33710.829 
 3970000    302.25623   -24488.407            0   -22492.762   -195.15691    33953.357 
 3980000    294.28178   -24532.669            0   -22589.675    151.00166    34093.011 
 3990000    297.25839   -24550.104            0   -22587.457    329.43055    33685.795 
 4000000    300.28524   -24473.857            0   -22491.226    637.10886     33588.87 
 4010000    298.92253     -24573.6            0   -22599.965   -177.03465    33968.885 
 4020000    306.88366   -24495.025            0   -22468.828   -387.53304    33760.056 
 4030000    298.45939   -24433.966            0    -22463.39    289.66717    33798.924 
 4040000    295.77238    -24430.81            0   -22477.974    67.431682    33737.035 
 4050000    291.45056   -24548.813            0   -22624.513    902.79634    33610.085 
 4060000    296.88298   -24571.866            0   -22611.698    27.531729    33973.605 
 4070000    293.25331   -24531.425            0   -22595.222   -489.14793    33722.982 
 4080000     302.4567   -24487.102            0   -22490.133   -971.74183     34246.14 
 4090000    295.86285   -24495.599            0   -22542.167    863.46968    33675.076 
 4100000    297.76464   -24484.321            0   -22518.331   -461.87875    33859.995 
 4110000    295.39888   -24557.465            0   -22607.096    552.77956    33546.528 
 4120000    296.06502   -24502.512            0   -22547.744   -515.12089    33737.256 
 4130000    294.86094   -24436.669            0   -22489.851   -691.66079    34194.206 
 4140000    298.02781   -24493.976            0   -22526.249   -692.09089    34103.202 
 4150000    293.40444   -24449.285            0   -22512.084    474.09536    33857.528 
 4160000    297.48618   -24492.174            0   -22528.024     614.1942    33920.361 
 4170000    293.96019   -24539.206            0   -22598.335   -405.50763     33832.22 
 4180000    300.25842   -24465.366            0   -22482.912   -473.16453    33798.837 
 4190000    289.58819   -24497.939            0   -22585.934   -643.12056    34061.551 
 4200000    303.64563   -24512.071            0   -22507.253    23.910133    33880.294 
 4210000    298.06851   -24555.036            0   -22587.041   -276.79168    34016.684 
 4220000    303.40347   -24410.873            0   -22407.654    -481.4991    34013.837 
 4230000    304.24209   -24463.281            0   -22454.525   -284.96568    34238.447 
 4240000    295.35216   -24346.406            0   -22396.345    467.78686    33796.456 
 4250000    304.03054   -24472.619            0   -22465.259    1094.2824    33918.555 
 4260000    300.15461    -24617.37            0   -22635.601   -683.09151    33916.591 
 4270000    300.75832    -24615.98            0   -22630.225    536.05836     33596.88 
 4280000    300.80281   -24472.276            0   -22486.227    327.51665     33566.91 
 4290000    292.03483   -24408.917            0   -22480.759   -71.601466    33889.521 
 4300000    298.74956   -24440.595            0   -22468.102   -919.08196    33839.123 
 4310000    294.00978   -24549.647            0   -22608.449   -71.798134    33616.081 
 4320000    289.15244   -24449.058            0    -22539.93   -243.92503    34347.955 
 4330000    301.64666   -24378.831            0    -22387.21   -137.15418    33964.765 
 4340000    305.01933   -24490.068            0    -22476.18   -198.73609     33933.41 
 4350000    290.98321   -24478.083            0   -22556.868    176.83023    33945.904 
 4360000    293.29813   -24511.601            0   -22575.102   -507.22467    34132.432 
 4370000    291.19787   -24531.598            0   -22608.966    19.576926     33881.48 
 4380000    301.37248   -24454.791            0   -22464.981    728.55176    33823.945 
 4390000    295.74901   -24640.708            0   -22688.027   -356.19569    33863.061 
 4400000     301.8328   -24557.507            0   -22564.657    1440.0345    33515.921 
 4410000    300.56779   -24508.765            0   -22524.268   -200.72222     34118.24 
 4420000    299.05241   -24456.851            0   -22482.359    -507.0503    33965.879 
 4430000    296.48929   -24456.025            0   -22498.456    1217.2293    33996.773 
 4440000    296.80716   -24525.333            0   -22565.666   -310.34004     33665.91 
 4450000    294.89928   -24527.995            0   -22580.924   -533.09786    33669.325 
 4460000    298.82809   -24592.054            0   -22619.043    564.46901    33513.372 
 4470000    305.21272   -24508.277            0   -22493.112    83.789919     33851.06 
 4480000    301.45166   -24487.976            0   -22497.643    686.99214     33860.03 
 4490000    307.24289   -24510.802            0   -22482.233   -96.107892    34362.707 
 4500000    301.28083   -24495.641            0   -22506.436   -47.442491    34196.115 
 4510000    303.10049   -24424.553            0   -22423.334   -360.43619    33636.041 
 4520000    301.19199   -24558.312            0   -22569.694    93.757349    33856.309 
 4530000      293.608    -24428.68            0   -22490.135    -107.8862    33930.224 
 4540000    289.84861   -24501.915            0   -22588.191    756.73595    33388.181 
 4550000    293.06634   -24554.774            0   -22619.806    532.25719    33791.997 
 4560000    302.91518   -24427.822            0   -22427.827    312.99767     34029.55 
 4570000    296.22264   -24564.804            0   -22608.996    632.21846    33548.911 
 4580000    305.02447   -24542.439            0   -22528.517    18.156365    34220.137 
 4590000    299.57767   -24515.243            0   -22537.284   -1108.3708    34161.286 
 4600000    295.58634   -24552.684            0   -22601.077     466.2178    33435.129 
 4610000    305.46248   -24448.984            0    -22432.17   -362.49807      34320.8 
 4620000    303.60409   -24541.917            0   -22537.373   -523.62944    34044.081 
 4630000    300.61102   -24582.582            0   -22597.799    648.09772    33879.138 
 4640000    301.62487   -24510.628            0   -22519.152    -285.8683    33864.476 
 4650000    291.44928   -24479.515            0   -22555.223    599.74853    34025.808 
 4660000    299.83525   -24498.228            0   -22518.567    192.12487     33831.89 
 4670000    300.17078   -24530.126            0    -22548.25    115.89636     33622.77 
 4680000    293.66689   -24452.791            0   -22513.857   -513.99685    33919.467 
 4690000    302.80428   -24541.122            0   -22541.858   -497.88919    33694.432 
 4700000    296.55989   -24577.377            0   -22619.342   -806.78666    34100.572 
 4710000     293.8193   -24542.569            0   -22602.628   -176.99927    33941.699 
 4720000    301.93786   -24521.204            0   -22527.661     359.8876    34043.655 
 4730000    296.36104   -24516.341            0   -22559.619    324.82183    33469.911 
 4740000    299.29926   -24562.665            0   -22586.543    341.74122    33524.407 
 4750000    299.23447   -24458.943            0    -22483.25   -165.19633     34325.99 
 4760000    298.20903    -24587.48            0   -22618.557    89.259345    34035.443 
 4770000    307.16806   -24490.065            0   -22461.989    1131.4047    33653.269 
 4780000    305.66713   -24500.897            0   -22482.732    407.84795    33787.612 
 4790000     304.8689   -24491.949            0   -22479.053   -219.40198    33882.139 
 4800000    297.42994   -24500.734            0   -22536.955    342.79869    33663.239 
 4810000    292.43838   -24591.272            0    -22660.45   -463.08897    33695.831 
 4820000    294.42579   -24525.228            0   -22581.284   -725.09736    34169.604 
 4830000    300.59061     -24562.8            0   -22578.152    311.22573    33499.506 
 4840000    298.38698   -24471.799            0     -22501.7   -84.733677     33864.13 
 4850000     294.8355   -24470.517            0   -22523.867   -334.33873     33900.97 
 4860000    305.78997   -24541.444            0   -22522.468    -403.3802    33682.904 
 4870000     298.9488   -24494.169            0   -22520.362   -576.30827     33579.03 
 4880000    301.47213   -24549.893            0   -22559.425   -34.898739     33650.23 
 4890000    293.47295    -24587.36            0   -22649.707   -711.45264    33728.652 
 4900000    299.10009   -24476.335            0   -22501.528   -531.81198    33991.531 
 4910000    290.25877   -24554.195            0   -22637.763     107.7843    33706.528 
 4920000    297.05413   -24473.664            0   -22512.366   -374.20227    33750.834 
 4930000    289.65224   -24455.135            0   -22542.708   -1083.7636    34387.469 
 4940000    307.34018   -24493.823            0   -22464.611    198.49141    34034.346 
 4950000    296.64205    -24644.77            0   -22686.193    361.68345    33858.359 
 4960000    285.20668   -24536.686            0    -22653.61   -106.15194    33786.989 
 4970000     303.9479   -24468.996            0   -22462.182    152.85953    34020.682 
 4980000    292.83949   -24503.886            0   -22570.415   -648.36489    33918.328 
 4990000    295.87264   -24518.469            0   -22564.971   -731.18417    33706.384 
 5000000    294.15119   -24475.374            0   -22533.242   -304.92514    34214.593 
Loop time of 5259.35 on 128 procs for 5000000 steps with 3216 atoms

Performance: 164.279 ns/day, 0.146 hours/ns, 950.689 timesteps/s
99.3% CPU use with 128 MPI tasks x no OpenMP threads

MPI task timing breakdown:
Section |  min time  |  avg time  |  max time  |%varavg| %total
---------------------------------------------------------------
Pair    | 1186.5     | 1430       | 1671.9     | 301.7 | 27.19
Bond    | 0.49004    | 0.59217    | 0.93507    |  10.1 |  0.01
Kspace  | 2084.9     | 2342.8     | 2563.5     | 232.4 | 44.55
Neigh   | 145.46     | 149.55     | 153.72     |  27.1 |  2.84
Comm    | 545.64     | 611.59     | 685.27     | 132.6 | 11.63
Output  | 0.042427   | 0.043154   | 0.044362   |   0.2 |  0.00
Modify  | 537.91     | 640.92     | 689.66     | 138.7 | 12.19
Other   |            | 83.82      |            |       |  1.59

Nlocal:    25.125 ave 33 max 18 min
Histogram: 2 11 15 13 33 7 23 15 7 2
Nghost:    2863.64 ave 2891 max 2837 min
Histogram: 7 12 17 7 14 24 14 22 8 3
Neighs:    9210.3 ave 12622 max 5964 min
Histogram: 3 4 12 29 18 31 11 8 10 2

Total # of neighbors = 1178919
Ave neighs/atom = 366.579
Ave special neighs/atom = 1.86567
Neighbor list builds = 435471
Dangerous builds = 0
reset_timestep 0

#################### 2) Obtaining average volume in NPT ######################
# Getting the average volume of the system
variable Volume equal vol
fix VoluAve all ave/time 1 ${Npnpt} ${Npnpt} v_Volume file volume.dat
fix VoluAve all ave/time 1 5000000 ${Npnpt} v_Volume file volume.dat
fix VoluAve all ave/time 1 5000000 5000000 v_Volume file volume.dat


# Thermo style for outputing system properties to the log file
thermo_style custom density
thermo_modify flush yes

variable Dens equal density
fix DensAve all ave/time 1 ${NBR} ${NBR} v_Dens file density.dat
fix DensAve all ave/time 1 100000 ${NBR} v_Dens file density.dat
fix DensAve all ave/time 1 100000 100000 v_Dens file density.dat

run ${Npnpt}
run 5000000
PPPM initialization ...
  extracting TIP4P info from pair style
  using 12-bit tables for long-range coulomb (../kspace.cpp:321)
  G vector (1/distance) = 0.309454
  grid = 30 30 30
  stencil order = 5
  estimated absolute RMS force accuracy = 0.00388661
  estimated relative force accuracy = 1.17044e-05
  using double precision FFTs
  3d grid and FFT values/proc = 2475 256
Per MPI rank memory allocation (min/avg/max) = 8.198 | 8.211 | 8.218 Mbytes
Density 
   1.1806667 
    1.185011 
    1.202827 
   1.1869564 
   1.2088226 
   1.2117255 
    1.190355 
   1.1823722 
   1.1977747 
   1.1953005 
   1.2040513 
    1.204931 
     1.21112 
   1.1877086 
   1.1929285 
   1.2160914 
   1.1983262 
   1.1968647 
   1.1955671 
    1.185939 
   1.1722122 
   1.1979956 
   1.1738643 
   1.2045713 
   1.1915529 
   1.1832715 
   1.1861856 
   1.1848383 
   1.1999653 
   1.1949686 
   1.1999101 
   1.1971107 
   1.1824853 
   1.1914204 
   1.1871892 
   1.1969264 
   1.2013603 
   1.1875616 
   1.1887664 
   1.1958483 
   1.1899679 
   1.1783003 
   1.2028776 
   1.1989707 
   1.2072084 
   1.2171969 
   1.1847412 
   1.2001032 
   1.1952304 
   1.1832414 
   1.2023471 
   1.1757742 
   1.1853575 
   1.1981604 
   1.2001929 
   1.1898189 
     1.19598 
   1.1880914 
    1.198422 
   1.1992201 
   1.1940141 
   1.1790073 
   1.1894615 
   1.1840202 
   1.2151885 
   1.2157633 
   1.2021124 
   1.2111654 
    1.181073 
   1.1871589 
   1.2074609 
   1.2038685 
   1.1909891 
   1.1986418 
   1.1741828 
   1.1975884 
   1.1879212 
   1.1855726 
   1.1826526 
   1.1943516 
      1.1933 
   1.1840278 
   1.1903055 
   1.1934986 
   1.1984849 
   1.2005983 
   1.2037285 
   1.1955914 
   1.2023449 
   1.1958172 
   1.2098914 
   1.1859668 
   1.1928194 
    1.190826 
   1.1927838 
   1.1921542 
   1.1859555 
    1.186331 
   1.1864041 
     1.19442 
   1.2044078 
   1.1923378 
   1.1971978 
   1.1932367 
   1.1865539 
   1.2004262 
   1.2062584 
   1.1840689 
   1.1835374 
   1.1925122 
   1.2052563 
   1.1828384 
   1.1962333 
   1.1989209 
   1.2070695 
   1.1932711 
   1.1833173 
   1.1924173 
   1.1909575 
   1.2133766 
   1.1882348 
   1.1844094 
   1.1954836 
   1.2112136 
   1.2206918 
   1.1962074 
   1.1986285 
   1.2057548 
   1.1877612 
   1.1975838 
   1.1983853 
   1.1986989 
   1.1893338 
   1.1889577 
   1.2057164 
   1.1958508 
    1.187548 
   1.1958823 
   1.1971914 
   1.1975649 
   1.1984427 
   1.2017057 
   1.1825137 
    1.186702 
   1.2037187 
   1.1880197 
   1.1879057 
   1.1943781 
   1.2028876 
    1.193313 
   1.1930009 
   1.1815622 
   1.1947376 
   1.2035653 
   1.2169474 
   1.1905323 
   1.1912418 
    1.193049 
   1.1984708 
   1.1825605 
    1.201178 
   1.1925833 
   1.1879801 
   1.2077783 
   1.1993927 
    1.182707 
   1.1898305 
   1.1833337 
   1.1945798 
   1.1919442 
   1.1971885 
   1.2029783 
   1.2069331 
   1.1966508 
   1.1862315 
   1.1919755 
   1.1843817 
   1.1933069 
   1.1928994 
   1.2081742 
   1.1882054 
   1.2045774 
   1.2000985 
   1.1846558 
   1.1948594 
   1.1910721 
   1.1898128 
   1.1971084 
   1.1882947 
    1.204517 
   1.2021849 
   1.2043311 
   1.1870334 
   1.2004879 
    1.201372 
   1.1841517 
   1.2023604 
   1.1863021 
   1.1946643 
    1.180495 
   1.1882469 
   1.1970887 
   1.1872253 
   1.1935273 
   1.1874826 
   1.1937987 
   1.2074783 
   1.1917727 
   1.1903885 
   1.1867646 
   1.2059436 
   1.2013243 
   1.2006586 
   1.1997592 
   1.2096641 
   1.1787933 
   1.1975372 
   1.1976304 
   1.1936266 
   1.1775771 
   1.1899586 
   1.1802481 
   1.1939405 
   1.2047281 
   1.1833448 
   1.2099445 
   1.1985967 
   1.1884996 
   1.2020994 
   1.2094617 
   1.1976777 
   1.1940746 
   1.2045794 
    1.213535 
   1.2022279 
   1.1923881 
   1.1928294 
     1.18814 
   1.1840938 
   1.2058626 
   1.1968182 
   1.1983428 
   1.2011271 
   1.1971351 
   1.1979774 
   1.1845435 
   1.1968162 
   1.1892407 
   1.1917971 
     1.18781 
   1.2026106 
   1.1888369 
   1.1862033 
   1.1978613 
   1.1839904 
   1.1944274 
   1.2044822 
   1.1965753 
   1.1902517 
   1.1911304 
     1.19284 
   1.1877699 
   1.1965971 
   1.2048664 
    1.199694 
   1.2100769 
   1.1811993 
   1.1878392 
   1.2006096 
   1.1942081 
   1.1929822 
   1.1897693 
   1.1892098 
   1.2022528 
   1.1931235 
   1.2036124 
   1.1931572 
   1.1912554 
   1.1893876 
    1.179073 
   1.1830412 
   1.1939098 
   1.1914613 
   1.2001151 
   1.1831004 
   1.1971654 
   1.1940685 
   1.1836621 
   1.1916232 
   1.1964185 
   1.1792665 
   1.1846504 
   1.1900932 
   1.1904621 
   1.1961059 
   1.1992624 
   1.1974794 
   1.1917265 
    1.196053 
   1.1937244 
   1.1963789 
   1.1924404 
   1.1884395 
   1.1973045 
   1.1750227 
   1.2008572 
   1.1986748 
   1.1857658 
   1.1951229 
   1.1868544 
   1.1835375 
   1.1960713 
   1.2050628 
   1.1871088 
    1.197187 
   1.2060364 
   1.1881175 
   1.1992042 
    1.205326 
   1.2079443 
    1.192274 
   1.1936429 
   1.1997902 
   1.1937923 
   1.1698194 
   1.1869064 
   1.1900555 
   1.1931309 
   1.2162986 
   1.1895017 
   1.1862049 
   1.1986572 
   1.2006814 
   1.1958414 
   1.1989322 
    1.186142 
   1.1956059 
   1.1951081 
   1.1815461 
    1.196545 
   1.1940195 
    1.184967 
    1.193113 
   1.2056783 
   1.2041435 
   1.1939212 
   1.1931181 
   1.1999197 
   1.1960691 
   1.1859978 
   1.1901844 
   1.1964946 
   1.1863086 
   1.2013496 
   1.1838694 
   1.1975117 
   1.1925293 
   1.1893051 
   1.1834712 
   1.2080934 
   1.2007026 
   1.1949879 
   1.1819281 
   1.1947299 
     1.20472 
   1.2106261 
    1.212387 
   1.1991802 
   1.1936065 
   1.2086739 
   1.1932426 
   1.1852431 
   1.2014438 
   1.1948215 
   1.1897603 
   1.1957515 
   1.1924651 
   1.2051593 
   1.2021709 
     1.19174 
   1.2028277 
   1.1939263 
   1.1909555 
    1.190872 
   1.1861948 
   1.1904631 
    1.186148 
   1.1706089 
   1.2003363 
   1.1888035 
   1.1798407 
   1.2071782 
    1.201499 
   1.1910578 
   1.2026726 
   1.1801368 
   1.2077925 
   1.1781189 
   1.1933892 
   1.1994723 
    1.193371 
   1.2007142 
    1.199592 
   1.1991744 
      1.1849 
   1.1984351 
   1.1982457 
   1.1900556 
   1.1766419 
   1.1891381 
   1.1988041 
   1.1991296 
   1.2094573 
   1.1926166 
   1.1837838 
   1.1801851 
   1.1866491 
   1.1925104 
    1.209013 
   1.2078253 
   1.2086384 
   1.2084166 
   1.2003579 
   1.1911459 
   1.1926088 
   1.1897326 
   1.1831553 
   1.1868147 
   1.1820829 
   1.2061822 
   1.2025916 
   1.1993907 
   1.1776969 
   1.1979547 
   1.1961936 
   1.1952374 
   1.1836232 
   1.2019053 
   1.1945964 
    1.210076 
   1.1981965 
   1.1985737 
   1.1894527 
   1.2041687 
   1.1928242 
   1.1958266 
   1.1922261 
   1.1985732 
   1.1771994 
   1.2001883 
   1.2014808 
    1.185213 
   1.1885085 
   1.1907634 
   1.1959348 
   1.1927487 
   1.2015048 
   1.1983939 
   1.1781888 
   1.1846566 
   1.1838173 
   1.2021344 
   1.2038849 
   1.1889988 
   1.1935761 
   1.2021384 
   1.1919922 
   1.2060648 
   1.2034127 
   1.1980181 
   1.1962385 
   1.1951322 
   1.1900609 
   1.1955188 
    1.197299 
   1.1966394 
   1.1854209 
   1.1919027 
   1.1845321 
   1.1866017 
    1.205007 
   1.1805854 
   1.2017623 
   1.1868712 
    1.185413 
   1.1958418 
   1.1999352 
   1.1859379 
   1.1892436 
   1.1882066 
   1.1938963 
   1.1993222 
   1.1841467 
   1.1913666 
   1.1946353 
   1.1966187 
   1.1901555 
   1.1976088 
   1.2045527 
   1.1856779 
   1.1839814 
Loop time of 5297.02 on 128 procs for 5000000 steps with 3216 atoms

Performance: 163.110 ns/day, 0.147 hours/ns, 943.926 timesteps/s
99.3% CPU use with 128 MPI tasks x no OpenMP threads

MPI task timing breakdown:
Section |  min time  |  avg time  |  max time  |%varavg| %total
---------------------------------------------------------------
Pair    | 1198       | 1427.7     | 1628       | 296.1 | 26.95
Bond    | 0.48692    | 0.5946     | 0.9563     |  10.9 |  0.01
Kspace  | 2115.6     | 2330.7     | 2548       | 228.8 | 44.00
Neigh   | 146.72     | 150.99     | 155.32     |  27.3 |  2.85
Comm    | 544.27     | 610.22     | 683.89     | 134.8 | 11.52
Output  | 0.043175   | 0.048129   | 0.052316   |   1.2 |  0.00
Modify  | 591.09     | 694.72     | 744.34     | 134.1 | 13.12
Other   |            | 82.07      |            |       |  1.55

Nlocal:    25.125 ave 35 max 16 min
Histogram: 2 1 10 31 25 31 16 9 1 2
Nghost:    2873.14 ave 2903 max 2842 min
Histogram: 8 6 13 7 21 24 26 12 6 5
Neighs:    9237.18 ave 13576 max 5451 min
Histogram: 1 7 15 28 26 23 11 10 5 2

Total # of neighbors = 1182359
Ave neighs/atom = 367.649
Ave special neighs/atom = 1.86567
Neighbor list builds = 435437
Dangerous builds = 0
reset_timestep 0

#################### 3) Initializing the NVT ensemble ####################
# scaling the size of the system to the average volume
variable sidesize equal (f_VoluAve^(1.0/3.0))    # get the volume
variable xlow equal xlo
variable ylow equal ylo
variable zlow equal zlo
variable xhig equal (xlo+${sidesize})
variable xhig equal (xlo+32.34494114954)
variable yhig equal (ylo+${sidesize})
variable yhig equal (ylo+32.34494114954)
variable zhig equal (zlo+${sidesize})
variable zhig equal (zlo+32.34494114954)
change_box all x final ${xlow} ${xhig} y final ${ylow} ${yhig} z final ${zlow} ${zhig}
change_box all x final 0.937578536042977 ${xhig} y final ${ylow} ${yhig} z final ${zlow} ${zhig}
change_box all x final 0.937578536042977 33.282519685583 y final ${ylow} ${yhig} z final ${zlow} ${zhig}
change_box all x final 0.937578536042977 33.282519685583 y final 0.937578536042977 ${yhig} z final ${zlow} ${zhig}
change_box all x final 0.937578536042977 33.282519685583 y final 0.937578536042977 33.282519685583 z final ${zlow} ${zhig}
change_box all x final 0.937578536042977 33.282519685583 y final 0.937578536042977 33.282519685583 z final 0.937578536042977 ${zhig}
change_box all x final 0.937578536042977 33.282519685583 y final 0.937578536042977 33.282519685583 z final 0.937578536042977 33.282519685583
  orthogonal box = (0.937579 0.937579 0.937579) to (33.2825 33.3714 33.3714)
  orthogonal box = (0.937579 0.937579 0.937579) to (33.2825 33.2825 33.3714)
  orthogonal box = (0.937579 0.937579 0.937579) to (33.2825 33.2825 33.2825)
unfix DensAve
unfix VoluAve

# changing the ensemble to NVT
unfix integrate
fix integrate all nvt temp ${Temp} ${Temp} 100.0
fix integrate all nvt temp 298 ${Temp} 100.0
fix integrate all nvt temp 298 298 100.0


# Initializing the whole system with very small timesteps in the NVT ensemble
timestep 0.001
run ${Ninvtpre}
run 10000
PPPM initialization ...
  extracting TIP4P info from pair style
  using 12-bit tables for long-range coulomb (../kspace.cpp:321)
  G vector (1/distance) = 0.30972
  grid = 30 30 30
  stencil order = 5
  estimated absolute RMS force accuracy = 0.00384421
  estimated relative force accuracy = 1.15767e-05
  using double precision FFTs
  3d grid and FFT values/proc = 2475 256
Per MPI rank memory allocation (min/avg/max) = 8.199 | 8.213 | 8.219 Mbytes
Density 
    1.193767 
    1.193767 
Loop time of 7.90135 on 128 procs for 10000 steps with 3216 atoms

Performance: 0.109 ns/day, 219.482 hours/ns, 1265.607 timesteps/s
99.4% CPU use with 128 MPI tasks x no OpenMP threads

MPI task timing breakdown:
Section |  min time  |  avg time  |  max time  |%varavg| %total
---------------------------------------------------------------
Pair    | 1.3613     | 2.1191     | 3.1531     |  24.1 | 26.82
Bond    | 0.00073988 | 0.00091348 | 0.0015473  |   0.0 |  0.01
Kspace  | 2.8996     | 3.8913     | 4.6199     |  17.3 | 49.25
Neigh   | 0          | 0          | 0          |   0.0 |  0.00
Comm    | 0.98068    | 1.0719     | 1.1481     |   3.6 | 13.57
Output  | 2.644e-05  | 3.49e-05   | 8.8245e-05 |   0.0 |  0.00
Modify  | 0.62622    | 0.70688    | 0.76303    |   3.9 |  8.95
Other   |            | 0.1113     |            |       |  1.41

Nlocal:    25.125 ave 32 max 16 min
Histogram: 1 3 7 11 19 29 30 8 15 5
Nghost:    2893.23 ave 2920 max 2866 min
Histogram: 4 6 13 14 18 30 23 11 7 2
Neighs:    9311.72 ave 13387 max 6141 min
Histogram: 5 9 16 31 25 13 15 9 3 2

Total # of neighbors = 1191900
Ave neighs/atom = 370.616
Ave special neighs/atom = 1.86567
Neighbor list builds = 0
Dangerous builds = 0
timestep 0.01
run ${Ninvtpre}
run 10000
PPPM initialization ...
  extracting TIP4P info from pair style
  using 12-bit tables for long-range coulomb (../kspace.cpp:321)
  G vector (1/distance) = 0.30972
  grid = 30 30 30
  stencil order = 5
  estimated absolute RMS force accuracy = 0.00384421
  estimated relative force accuracy = 1.15767e-05
  using double precision FFTs
  3d grid and FFT values/proc = 2475 256
Per MPI rank memory allocation (min/avg/max) = 8.199 | 8.213 | 8.219 Mbytes
Density 
    1.193767 
    1.193767 
Loop time of 8.15793 on 128 procs for 10000 steps with 3216 atoms

Performance: 1.059 ns/day, 22.661 hours/ns, 1225.801 timesteps/s
99.4% CPU use with 128 MPI tasks x no OpenMP threads

MPI task timing breakdown:
Section |  min time  |  avg time  |  max time  |%varavg| %total
---------------------------------------------------------------
Pair    | 1.3904     | 2.1204     | 3.296      |  24.0 | 25.99
Bond    | 0.000758   | 0.0009312  | 0.0015609  |   0.0 |  0.01
Kspace  | 2.995      | 4.1244     | 4.8516     |  16.9 | 50.56
Neigh   | 0.0013511  | 0.0013733  | 0.0013941  |   0.0 |  0.02
Comm    | 0.98474    | 1.0774     | 1.1478     |   3.7 | 13.21
Output  | 2.697e-05  | 3.6239e-05 | 9.9165e-05 |   0.0 |  0.00
Modify  | 0.6398     | 0.71846    | 0.77602    |   3.8 |  8.81
Other   |            | 0.115      |            |       |  1.41

Nlocal:    25.125 ave 34 max 16 min
Histogram: 2 7 8 21 11 35 27 12 2 3
Nghost:    2895.34 ave 2931 max 2866 min
Histogram: 2 8 16 21 30 27 13 5 4 2
Neighs:    9312.59 ave 13873 max 5284 min
Histogram: 3 7 10 22 32 28 11 10 3 2

Total # of neighbors = 1192012
Ave neighs/atom = 370.65
Ave special neighs/atom = 1.86567
Neighbor list builds = 4
Dangerous builds = 0
timestep 0.1
run ${Ninvtpre}
run 10000
PPPM initialization ...
  extracting TIP4P info from pair style
  using 12-bit tables for long-range coulomb (../kspace.cpp:321)
  G vector (1/distance) = 0.30972
  grid = 30 30 30
  stencil order = 5
  estimated absolute RMS force accuracy = 0.00384421
  estimated relative force accuracy = 1.15767e-05
  using double precision FFTs
  3d grid and FFT values/proc = 2475 256
Per MPI rank memory allocation (min/avg/max) = 8.199 | 8.213 | 8.219 Mbytes
Density 
    1.193767 
    1.193767 
Loop time of 8.57373 on 128 procs for 10000 steps with 3216 atoms

Performance: 10.077 ns/day, 2.382 hours/ns, 1166.353 timesteps/s
99.3% CPU use with 128 MPI tasks x no OpenMP threads

MPI task timing breakdown:
Section |  min time  |  avg time  |  max time  |%varavg| %total
---------------------------------------------------------------
Pair    | 1.4459     | 2.1298     | 2.8782     |  20.0 | 24.84
Bond    | 0.000751   | 0.00092181 | 0.0015073  |   0.0 |  0.01
Kspace  | 3.6524     | 4.3946     | 5.0752     |  13.8 | 51.26
Neigh   | 0.014749   | 0.032637   | 0.034006   |   2.6 |  0.38
[...]
98160000    307.11924    298.27794   -571.94383    27.769621   -24459.137     2027.753   -22431.384 
98170000    296.11598    297.78827    22.687832    23.127997   -24521.902     1955.104   -22566.798 
98180000     304.7075    297.58125   -180.41656   -164.02611   -24525.814    2011.8296   -22513.984 
98190000    299.93072      298.009   -731.46163    -65.08367   -24540.823    1980.2909   -22560.532 
98200000    300.29787     297.8494    147.61987    6.1870079   -24494.785    1982.7149   -22512.071 
98210000    293.00323    297.59963    -261.4161    4.3210571   -24541.126    1934.5521   -22606.574 
98220000    294.06817    298.00514    275.93279   -15.795437   -24556.927    1941.5834   -22615.343 
98230000    304.68406    298.28029   -161.95586   -97.801259   -24515.012    2011.6748   -22503.337 
98240000    306.18235    298.49376   -711.78563   -27.938682   -24519.571    2021.5672   -22498.004 
98250000     305.2596    298.09099    344.37062    62.925966   -24506.723    2015.4748   -22491.249 
98260000    300.96104    297.97545    456.10128    130.54652   -24496.819    1987.0935   -22509.726 
98270000    295.75018    298.10545   -148.69988    48.637097   -24459.999    1952.6888    -22507.31 
98280000    296.64017    297.56603    90.380723    73.015001   -24463.166     1958.565   -22504.601 
98290000    287.38982    297.96352   -175.21509   -77.813787   -24432.754    1897.4897   -22535.264 
98300000    298.02924     298.1619    93.745331     70.98303   -24568.066    1967.7364    -22600.33 
98310000    299.29428    297.64411    206.18696    44.247857   -24379.953    1976.0888   -22403.864 
98320000     295.0549    298.29042    314.83227    40.244814   -24435.191    1948.0983   -22487.093 
98330000    299.84347     297.9312    395.38393    11.703001   -24421.889    1979.7148   -22442.174 
98340000    306.58722    298.02659     761.8202    -8.919027   -24532.313    2024.2403   -22508.073 
98350000    293.60752    298.44381   -571.15685    44.982159   -24381.121    1938.5419   -22442.579 
98360000    299.55115     298.4559     749.0475   -27.410971   -24375.665    1977.7847    -22397.88 
98370000    299.18091    297.83117    161.39685    118.25577   -24491.971    1975.3402   -22516.631 
98380000    298.95149    298.36629   -890.10496    14.493051   -24494.867    1973.8255   -22521.042 
98390000    299.92095    298.51133   -874.70405   -23.755515   -24469.877    1980.2264   -22489.651 
98400000    291.61804    297.55019   -143.59961   -88.497947   -24539.517    1925.4064   -22614.111 
98410000    309.46901    298.32217   -622.83925   -91.223135   -24503.058    2043.2674    -22459.79 
98420000    295.04165    297.79012    88.200744    47.384916   -24467.419    1948.0108   -22519.408 
98430000    292.48464    298.09093    525.05214   -24.164513   -24536.018    1931.1282    -22604.89 
98440000    301.04194    297.82552   -86.420081    129.42769   -24502.376    1987.6277   -22514.748 
98450000     295.2559    298.17276    839.53661   -55.529324   -24512.632    1949.4254   -22563.207 
98460000    297.54609    297.86936    69.910684    77.346585   -24482.461    1964.5463   -22517.914 
98470000    296.21814    297.92114   -520.39883    44.895627   -24547.478    1955.7786     -22591.7 
98480000    304.55763    298.06762    96.073254    16.579855   -24577.154      2010.84   -22566.314 
98490000    290.41733    298.03761    200.05049   -97.673137   -24417.021    1917.4788   -22499.542 
98500000    295.23688    298.46729   -192.38649   -1.7346457   -24491.486    1949.2998   -22542.186 
98510000    296.75415    297.86781   -519.46498    1.8926492   -24498.077    1959.3176    -22538.76 
98520000    295.57574    298.06064   -232.39064    47.656683   -24508.386    1951.5371   -22556.849 
98530000    293.08387    297.83704   -230.22943    3.5130453   -24436.838    1935.0846   -22501.754 
98540000    294.55836    297.72767   -1333.7775   -170.21149   -24581.127    1944.8199   -22636.307 
98550000    310.73605    297.85751    1098.6947   -13.210859   -24547.215     2051.633   -22495.582 
98560000    295.72474    297.98881    -10.61011   -130.77502   -24448.101    1952.5209    -22495.58 
98570000    292.69615    298.28275    -241.2808   -11.983868   -24362.955    1932.5247   -22430.431 
98580000    298.28947     298.0064   -704.53473    26.566696   -24485.435    1969.4545    -22515.98 
98590000    292.81977    298.06436   -131.40453    55.097515   -24586.742    1933.3409   -22653.401 
98600000    297.35522    298.51495   -24.887815    77.143771   -24489.085    1963.2862   -22525.799 
98610000    301.05821    297.49341    784.10448   -19.541157   -24456.867    1987.7351   -22469.131 
98620000    301.52416    298.22337   -518.10121    -6.703919   -24592.803    1990.8115   -22601.991 
98630000    304.00156    297.66367   -111.86133   -10.462506   -24584.286    2007.1685   -22577.117 
98640000    303.72964    297.83908    270.02721    37.976555   -24462.252    2005.3732   -22456.878 
98650000    296.57555    297.87029   -115.21791    91.698823    -24448.06    1958.1384   -22489.922 
98660000    293.45665    297.86211   -231.84511   -15.602737   -24500.485    1937.5459    -22562.94 
98670000    305.83062    298.10284     452.4473    75.818372   -24557.106    2019.2449   -22537.861 
98680000    293.34876    297.58096    295.65587   -78.939992   -24471.775    1936.8335   -22534.941 
98690000    296.75537    298.93972    121.68088    44.029306   -24529.362    1959.3256   -22570.036 
98700000    295.91474    298.27731   -636.30959    41.532668    -24515.49    1953.7754   -22561.715 
98710000    300.16577    297.99934    642.08194   -66.520107   -24607.782    1981.8428   -22625.939 
98720000     295.0296    297.92375   -929.32377    7.1286072   -24477.245    1947.9313   -22529.314 
98730000    291.18772    297.89435   -299.66136   -56.586087    -24451.65    1922.5653   -22529.085 
98740000    292.31843    298.04066    -98.29885   -1.0932831   -24497.545    1930.0307   -22567.514 
98750000    301.93621    298.46129    361.09332   -33.199812   -24482.196    1993.5321   -22488.664 
98760000    289.34598    298.01697     189.2095   -90.840297    -24565.84    1910.4052   -22655.434 
98770000    308.24713    297.91183   -212.76415   -82.337344   -24512.368    2035.1999   -22477.168 
98780000    289.74539    298.00178    443.08939   -168.65135   -24457.822    1913.0423    -22544.78 
98790000    304.43374    298.11244    244.02197   -72.409134   -24442.215     2010.022   -22432.193 
98800000    305.75887    298.07142   -115.00109   -29.237749   -24444.623    2018.7712   -22425.852 
98810000    300.47571    297.99286    -116.2066    37.822213   -24615.867    1983.8892   -22631.978 
98820000    298.71668    298.03153    321.86912    77.279009    -24509.49    1972.2752   -22537.214 
98830000    298.70544    298.14394     311.1624    76.621328   -24565.971     1972.201   -22593.771 
98840000    293.48386    297.97771   -694.63166     11.87292   -24498.969    1937.7255   -22561.243 
98850000    302.16878    297.58426   -474.76105   -34.082611   -24495.049    1995.0676   -22499.981 
98860000    296.61019    298.38697    142.23571    -152.2148   -24437.108    1958.3671    -22478.74 
98870000    300.29547    297.61634   -329.79888    -94.82085    -24528.45    1982.6991   -22545.751 
98880000    306.93394    298.04031    506.30293   -70.542938   -24512.788    2026.5295   -22486.259 
98890000     291.9534    297.45989   -160.16441   -4.7318433   -24586.381    1927.6206    -22658.76 
98900000    294.48029    297.65006   -487.10422   -97.133866    -24470.17    1944.3044   -22525.865 
98910000    294.03371    297.96116    69.302318   -75.864624     -24513.1    1941.3559   -22571.744 
98920000    293.63227    298.37712    157.22446   -11.661889   -24599.653    1938.7054   -22660.948 
98930000     301.9808    298.02628   -75.101797    58.353888   -24511.329    1993.8265   -22517.502 
98940000    305.83866    298.26003   -304.84349    20.769946    -24506.66     2019.298   -22487.362 
98950000    298.48287    298.10329    86.739632    99.512889   -24487.529    1970.7314   -22516.798 
98960000    304.56915    297.77824    60.071502    30.684832   -24460.674     2010.916   -22449.758 
98970000    299.18368    298.20265   -776.31152   -46.571168   -24529.777    1975.3585   -22554.418 
98980000    299.42159    298.09474   -105.65162   -45.459344   -24478.818    1976.9293   -22501.889 
98990000    299.61723    297.44563    210.75816   -101.42417   -24500.979     1978.221   -22522.758 
99000000    298.73137    298.12528   -797.44439    87.076453    -24456.06    1972.3721   -22483.688 
99010000     291.2654    297.56831    317.04174   -26.492664   -24501.962    1923.0781   -22578.884 
99020000    297.20758    298.17713   -362.04874    5.1579039   -24497.347    1962.3113   -22535.035 
99030000    298.31282    297.09339   -100.97436   -35.613341   -24485.459    1969.6087    -22515.85 
99040000    298.72449    297.90463    128.43589    46.334506   -24590.791    1972.3268   -22618.464 
99050000    298.10266    298.12235    82.239814   -2.6586427   -24446.858    1968.2211   -22478.637 
99060000    296.83821    297.88415   -752.85506    5.9994478   -24490.247    1959.8725   -22530.374 
99070000    293.04834    297.88317    409.03952   -101.86766   -24545.323      1934.85   -22610.473 
99080000    299.91504    297.99553   -269.52918   -6.7958869   -24492.078    1980.1873   -22511.891 
99090000    304.04088    298.08379    157.84133   -79.919331   -24538.985    2007.4282   -22531.557 
99100000    306.60998    298.35052    467.28366   -18.416442   -24491.404    2024.3906   -22467.014 
99110000    303.22707     298.5198   -241.03866     63.89295   -24563.437     2002.055   -22561.382 
99120000    300.37489    298.02054    236.43202   -5.6937845   -24457.165    1983.2235   -22473.941 
99130000    304.40541     298.2339    320.67705    -38.32133   -24521.227     2009.835   -22511.392 
99140000    305.91033    298.02524    445.39068   -43.229243   -24579.512    2019.7712   -22559.741 
99150000    301.71274    298.13568    -585.1843   -67.461608   -24456.508    1992.0567   -22464.451 
99160000    292.51676     297.8849   -129.73812   -176.23161   -24516.273    1931.3403   -22584.933 
99170000    303.02519    298.54843   -314.50416   -101.84349   -24489.358    2000.7221   -22488.636 
99180000    295.02419    298.53305   -68.027856    210.18718    -24447.29    1947.8955   -22499.394 
99190000    292.19703     297.7798    386.12791     41.54158   -24402.573    1929.2292   -22473.344 
99200000    301.41919    298.13524    470.80938    86.001117   -24452.414    1990.1185   -22462.295 
99210000    301.00319    298.11202    586.73558   -93.299333   -24450.721    1987.3719   -22463.349 
99220000    296.05032    298.13983   -159.53259   -35.295747   -24500.198    1954.6705   -22545.527 
99230000    290.48724    297.76035    1012.4276     8.997806   -24487.411    1917.9403    -22569.47 
99240000    303.85455    298.23755     167.1528   -90.003586   -24484.253     2006.198   -22478.055 
99250000    307.44835    297.90513   -375.62751    77.024986   -24504.705     2029.926   -22474.779 
99260000    298.09081    297.86054    429.32324    130.51693   -24495.656    1968.1429   -22527.513 
99270000    297.89316    297.72477    239.18651     64.73295   -24529.218    1966.8379    -22562.38 
99280000    296.01216    298.28172   -364.26932    7.0897951   -24483.107    1954.4186   -22528.688 
99290000    304.53837    298.13109    347.99458   -69.732541   -24573.098    2010.7129   -22562.386 
99300000    297.29017    297.98841    377.92819    31.289494   -24644.848    1962.8566   -22681.992 
99310000    299.91189    297.70502    364.67788   -52.389842   -24567.886    1980.1666    -22587.72 
99320000     304.1296    298.04284    361.76627    59.123249    -24411.41     2008.014   -22403.396 
99330000    302.98722    298.14749   -182.21009    13.908811   -24547.549    2000.4714   -22547.078 
99340000    303.44501    297.88533    400.25076   -71.019878   -24490.102     2003.494   -22486.608 
99350000    299.14981    298.38041   -46.695838    96.044113   -24456.946    1975.1349   -22481.811 
99360000    297.19053     297.8681   -208.34735   -3.4364133   -24515.101    1962.1988   -22552.902 
99370000    286.85765    297.79183    232.07761    81.452315   -24527.184     1893.976   -22633.208 
99380000    294.42514    297.63817   -260.93583   -115.43356   -24505.418    1943.9403   -22561.477 
99390000    310.60134    297.63019   -63.568052     10.91217   -24501.483    2050.7436    -22450.74 
99400000    299.25339    298.06786   -174.48823   -80.743817    -24454.44    1975.8188   -22478.621 
99410000    299.39308      297.886    332.13509   -69.828358   -24443.858    1976.7411   -22467.117 
99420000    292.47203    298.42538   -393.28124   -5.3815344   -24496.049    1931.0449   -22565.004 
99430000    284.01122    297.68046   -496.86601    14.846694   -24622.436    1875.1825   -22747.253 
99440000    302.49799    297.94241    378.65046   -20.683967   -24490.173    1997.2412   -22492.932 
99450000    291.17886    297.83526    267.36238    47.527267   -24496.487    1922.5068    -22573.98 
99460000    301.49059    298.27035    73.365831    -95.63922   -24453.047    1990.5899   -22462.457 
99470000    310.57572    298.48929   -541.85567    1.3196674     -24530.1    2050.5744   -22479.526 
99480000    296.08798      298.237    94.643212   -4.7983756   -24540.275    1954.9192   -22585.356 
99490000    293.01274     298.1897   -246.98946     7.267143   -24499.966     1934.615   -22565.351 
99500000    302.28866    297.75778   -335.25401    15.801196   -24540.569    1995.8591    -22544.71 
99510000    295.69126    297.92977     -922.451    21.126877   -24468.723    1952.2998   -22516.423 
99520000    292.75414    297.81378    437.39669   -18.281243   -24434.605    1932.9076   -22501.698 
99530000     303.1496    297.94932    526.82472   -10.418882   -24462.541    2001.5435   -22460.997 
99540000    301.28816    298.35503   -45.534883   -59.407101   -24499.058    1989.2533   -22509.804 
99550000    298.44732     298.0114   -64.081592   -5.0925637    -24567.09    1970.4967   -22596.593 
99560000    290.72974    298.37927   -383.34968   -59.885419   -24451.827    1919.5414   -22532.286 
99570000    301.84362    298.30567     246.1346    36.997952   -24600.844    1992.9208   -22607.923 
99580000    291.12063    298.15493   -278.32658    17.470013    -24509.41    1922.1223   -22587.288 
99590000    297.42375    297.83635    393.39475   -42.429392   -24536.836    1963.7386   -22573.097 
99600000    301.50682    297.79263   -327.62717   -80.402123   -24543.675    1990.6971   -22552.978 
99610000    295.31406    298.01677   -123.21976    78.616534   -24621.616    1949.8094   -22671.807 
99620000    293.29753    297.98091   -62.006763      -106.97   -24418.075    1936.4953   -22481.579 
99630000    297.05282    298.11771    378.34229   -159.87161   -24474.824    1961.2895   -22513.534 
99640000    297.21067    298.45893    191.88176    31.686366   -24572.848    1962.3318   -22610.516 
99650000    295.40835    298.21471   -222.91389   -19.838501    -24559.87    1950.4319   -22609.439 
99660000    294.44536    297.97646    46.913705    -20.15708    -24554.78    1944.0738   -22610.707 
99670000    295.77663    297.90053   -319.70439    35.718246   -24606.311    1952.8635   -22653.447 
99680000    298.44804    297.86039     442.4871   -179.98348   -24527.778    1970.5015   -22557.276 
99690000     310.9246    297.95412    69.357513   -50.440713   -24502.784    2052.8779   -22449.906 
99700000    303.34341    297.90431   -394.03604   -47.102491    -24560.44    2002.8231   -22557.617 
99710000    299.27192    297.94572    69.817781   -157.78744   -24514.791    1975.9412    -22538.85 
99720000    286.82829    297.85221   -186.93436   -27.684286   -24539.683    1893.7821   -22645.901 
99730000    290.40248    297.91435    -48.70391    3.6404488   -24346.837    1917.3807   -22429.456 
99740000    300.25607    298.43089    1158.0116   -15.309871   -24453.459     1982.439    -22471.02 
99750000    299.60947    297.72458   -244.02987    41.932506   -24457.896    1978.1698   -22479.726 
99760000    295.14019     298.1788    283.87319    27.044543   -24559.353    1948.6614   -22610.691 
99770000    298.89974    298.30035   -432.70175   -72.361267   -24565.202    1973.4838   -22591.718 
99780000    291.54851    297.86692   -446.05388    87.424605   -24552.585    1924.9474   -22627.637 
99790000    296.54216    298.23052   -307.96851   -116.62772   -24499.499    1957.9179   -22541.581 
99800000    295.53702    297.76127    660.76479   -23.885332   -24531.393    1951.2815   -22580.111 
99810000    296.27413    298.08904   -26.404768   -131.27584   -24427.728    1956.1482    -22471.58 
99820000    298.65777    297.88515    256.15695   -86.104252   -24525.952    1971.8862   -22554.065 
99830000    289.54275    297.72577   -620.16024   -6.5087041   -24538.416    1911.7044   -22626.711 
99840000    295.45576    297.86462    124.34549    -75.35824    -24394.67    1950.7449   -22443.925 
99850000    296.18393    298.40026   -106.41514   -67.172333   -24551.456    1955.5527   -22595.903 
99860000     287.8808    297.48032   -226.89181   -98.356863   -24530.722    1900.7313   -22629.991 
99870000    293.81029    297.71348   -33.983593    73.082068   -24442.579    1939.8807   -22502.698 
99880000    303.71727    298.30713    44.082381   -127.24595   -24503.383    2005.2915   -22498.091 
99890000    298.66445    298.41302    11.078693   -36.098069   -24531.148    1971.9303   -22559.218 
99900000    294.71485     297.4949    387.21582    63.039825   -24464.993    1945.8531   -22519.139 
99910000    299.20135    298.02349    487.69587   -29.944182   -24540.395    1975.4752    -22564.92 
99920000    306.32545    297.93833   -237.98589   -32.651427   -24411.849     2022.512   -22389.337 
99930000     285.8938    298.01562   -78.406622    14.025158   -24428.123    1887.6122   -22540.511 
99940000    288.19468    297.57844     171.9106   -16.769622   -24471.508    1902.8037   -22568.704 
99950000    294.66098    297.52119    565.23272    211.90066   -24486.127    1945.4974   -22540.629 
99960000    306.81323    297.66965   -532.75197     15.30614   -24429.772    2025.7326    -22404.04 
99970000    297.52197    298.38232   -459.76157   -95.971476   -24455.998    1964.3871   -22491.611 
99980000    296.62902    297.88917   -202.08238   -80.058221   -24509.127    1958.4914   -22550.636 
99990000    297.60722    298.02073    -3.614065   -151.23445   -24568.615      1964.95   -22603.666 
100000000    297.00488    298.41842    -319.6191   -61.137058   -24486.531     1960.973   -22525.558 
Loop time of 93095.1 on 128 procs for 100000000 steps with 3216 atoms

Performance: 185.617 ns/day, 0.129 hours/ns, 1074.171 timesteps/s
99.3% CPU use with 128 MPI tasks x no OpenMP threads

MPI task timing breakdown:
Section |  min time  |  avg time  |  max time  |%varavg| %total
---------------------------------------------------------------
Pair    | 20052      | 23775      | 26935      |1174.6 | 25.54
Bond    | 8.945      | 10.438     | 18.104     |  35.6 |  0.01
Kspace  | 39362      | 42514      | 46274      | 894.7 | 45.67
Neigh   | 2974.5     | 3002.2     | 3034.6     |  27.9 |  3.22
Comm    | 11637      | 12445      | 13046      | 337.5 | 13.37
Output  | 7.5006     | 87.719     | 103.31     | 165.4 |  0.09
Modify  | 8989.7     | 9691.3     | 10295      | 336.5 | 10.41
Other   |            | 1569       |            |       |  1.69

Nlocal:    25.125 ave 36 max 16 min
Histogram: 2 3 13 22 32 28 17 7 2 2
Nghost:    2896.2 ave 2923 max 2866 min
Histogram: 2 5 10 12 25 22 30 13 7 2
Neighs:    9318.09 ave 13095 max 5198 min
Histogram: 2 2 6 27 23 28 23 5 6 6

Total # of neighbors = 1192715
Ave neighs/atom = 370.869
Ave special neighs/atom = 1.86567
Neighbor list builds = 8627383
Dangerous builds = 0

quit
