3216
Atoms. Timestep: 0
O 16.6562 19.3331 26.7833
H 16.8475 20.1625 27.2213
H 17.494 19.0602 26.4095
O 17.2786 6.86045 25.4586
H 16.617 7.09017 26.1111
H 16.7897 6.77769 24.6399
O 18.2047 20.4239 16.5155
H 19.1342 20.2032 16.4556
H 17.7744 19.5953 16.7264
O 10.7801 4.57072 15.1831
H 10.01 4.47901 15.7442
H 10.8516 5.51218 15.0257
O 25.3473 2.20126 13.9867
H 25.5053 1.76841 13.1477
H 26.217 2.46311 14.2891
O 11.4928 32.059 2.46621
H 11.4378 32.9756 2.19599
H 12.4101 31.8228 2.32843
O 6.57681 2.41278 7.00509
H 6.51353 1.58781 7.48639
H 5.84124 2.39054 6.39299
O 15.6923 24.9896 9.4094
H 16.198 24.9608 8.59717
H 16.0458 25.7408 9.88568
O 10.557 27.8309 8.09056
H 10.4545 27.7295 7.14428
H 10.7304 26.9451 8.40942
O 21.3266 18.4561 5.31564
H 21.6931 17.9803 6.06099
H 22.0871 18.6931 4.78487
O 18.147 11.595 7.1266
H 18.6267 12.3793 6.86029
H 17.6992 11.8499 7.9333
O 32.0877 4.1927 27.1732
H 32.527 4.47697 26.3716
H 31.8796 5.00547 27.634
O 16.5659 18.1598 31.0948
H 16.1455 17.813 30.3079
H 17.5019 18.0254 30.9459
O 9.43853 26.2743 24.5611
H 10.2138 26.0691 24.0386
H 9.60283 25.8589 25.4077
O 8.91017 8.34117 1.62156
H 9.35009 7.98866 33.1929
H 9.35368 9.17211 1.79207
O 23.123 26.1081 8.08783
H 22.8103 26.5097 8.89851
H 23.4463 25.2477 8.35533
O 12.3398 8.04829 7.05992
H 13.0182 7.52563 7.48749
H 11.5982 8.01983 7.66449
O 12.8753 28.4661 30.2733
H 12.2126 29.1439 30.4065
H 12.374 27.6568 30.173
O 10.1367 12.4131 8.0483
H 9.89321 11.9853 8.86924
H 10.486 13.2634 8.31515
O 26.08 22.4591 8.55865
H 25.1819 22.5966 8.25726
H 26.5018 23.3118 8.45319
O 27.7423 13.4295 2.53387
H 26.949 13.6039 2.02745
H 27.4683 13.5169 3.44683
O 21.0563 9.73773 17.8167
H 20.2675 10.229 17.587
H 21.6445 10.3913 18.1949
O 30.2779 22.6947 17.6108
H 30.8212 23.2497 18.1703
H 30.8399 22.4818 16.8658
O 13.3616 22.3212 8.71944
H 12.8668 22.4032 7.90417
H 12.7674 21.866 9.31605
O 14.0008 2.51719 19.2812
H 14.6234 3.00981 18.7464
H 13.1437 2.7387 18.917
O 7.5581 1.79361 16.5525
H 7.19656 1.28072 17.2753
H 8.42644 1.41943 16.4035
O 20.6431 14.8955 9.0402
H 20.9193 15.8084 8.95889
H 20.0414 14.8923 9.78462
O 29.4744 7.65457 32.8787
H 28.8179 7.26696 32.2999
H 29.9188 6.9045 33.2739
O 13.0532 19.1121 8.23894
H 12.1322 19.0385 8.48924
H 13.0337 19.2626 7.29386
O 31.824 26.9082 32.2761
H 32.4273 26.3776 32.7965
H 32.3921 27.4473 31.7258
O 11.6348 28.4025 18.6805
H 11.5213 28.7131 19.5788
H 12.4287 28.8404 18.3737
O 29.7523 21.2181 11.2178
H 29.1038 21.4526 11.8816
H 29.2443 21.1092 10.4139
O 16.4014 25.8201 27.3404
H 16.6345 26.7386 27.2057
H 17.0152 25.3335 26.7901
O 15.3468 21.762 16.3633
H 14.9494 20.898 16.4726
H 14.6062 22.3684 16.3623
O 5.83394 21.9522 16.9262
H 6.37735 21.7908 16.1549
H 5.07196 21.3855 16.8058
O 29.7849 7.99011 21.9588
H 28.9821 8.39986 22.2811
H 30.0915 8.57514 21.266
O 6.49797 14.6693 15.1116
H 6.40188 14.9432 16.0238
H 7.30529 14.1552 15.0993
O 16.4809 9.23449 21.8668
H 15.9158 9.94119 22.179
H 16.0471 8.43312 22.1598
O 6.49897 9.21752 18.951
H 7.03224 8.61162 18.4365
H 7.08087 9.95591 19.131
O 14.8749 10.4277 5.58597
H 15.5248 9.73524 5.70561
H 15.3497 11.1277 5.13793
O 31.7131 13.1236 1.98398
H 32.0745 12.3916 2.48373
H 32.0325 13.9042 2.43674
O 5.30485 1.73313 14.7889
H 6.10869 1.92588 15.2715
H 5.57254 1.10525 14.1178
O 23.463 23.1573 8.16206
H 22.8126 22.7886 8.75975
H 23.2548 22.7697 7.31198
O 19.2948 26.6422 11.5045
H 18.6577 27.0302 10.9047
H 18.7812 26.0409 12.0439
O 29.2873 29.3122 13.8909
H 29.5332 30.0107 14.4974
H 29.8001 28.5557 14.1754
O 4.78874 27.6108 12.0036
H 4.13078 28.2067 11.6454
H 4.63546 27.6239 12.9483
O 19.6319 3.3665 3.35414
H 18.7478 3.66389 3.56928
H 20.1626 4.16298 3.36633
O 32.4777 24.3513 14.3357
H 31.8449 24.9123 14.7843
H 32.196 23.4599 14.541
O 27.6253 28.2788 10.8616
H 27.623 28.6912 9.99786
H 28.3836 27.6948 10.8467
O 24.1392 14.1391 27.0342
H 23.997 14.6002 26.2075
H 24.6503 13.3664 26.7932
O 27.2921 1.02338 20.749
H 27.5938 1.87042 21.0773
H 26.4127 1.19575 20.4126
O 3.6842 23.3326 30.1468
H 4.21192 22.8395 29.5187
H 4.28739 23.9809 30.5102
O 24.0977 33.1121 17.5574
H 23.804 32.2413 17.8251
H 24.313 1.21064 18.3779
O 24.9404 30.2047 3.04712
H 25.8792 30.3165 3.19683
H 24.5366 30.9538 3.48526
O 19.8274 7.29512 26.7381
H 19.9408 6.34565 26.7815
H 19.4559 7.45299 25.8702
O 32.4498 12.1142 23.6472
H 31.5972 11.6842 23.7142
H 32.6314 12.1419 22.7078
O 29.654 8.4952 26.3686
H 29.4027 7.57427 26.2978
H 29.9321 8.7366 25.485
O 22.4776 8.36561 25.1099
H 23.1453 9.04408 25.2108
H 22.7594 7.66271 25.6954
O 6.30478 32.8459 29.7183
H 5.56325 32.6164 29.1582
H 6.9794 33.1495 29.1109
O 24.5644 2.35938 30.704
H 24.8895 2.30901 31.6029
H 24.0799 1.54354 30.578
O 22.4902 31.7414 32.9108
H 22.8031 31.8333 32.0109
H 21.5415 31.852 32.8475
O 29.1179 23.1419 6.44728
H 29.9684 23.5812 6.44365
H 28.7295 23.364 5.60113
O 29.7 19.1072 5.4964
H 29.5525 19.2 4.5552
H 30.0032 18.2057 5.6041
O 28.2312 5.62625 28.7282
H 27.9751 6.34589 29.3051
H 27.7414 5.78023 27.9204
O 10.8751 26.5619 29.3244
H 10.3283 26.2817 30.0585
H 10.53 26.0822 28.5714
O 11.4442 25.115 33.1453
H 10.7042 25.3909 32.6046
H 11.2238 24.2241 1.07228
O 19.9365 14.6481 16.4684
H 19.3479 15.3918 16.3391
H 20.3714 14.8285 17.3019
O 1.77593 8.97435 32.8289
H 2.16853 8.6422 1.29131
H 1.11508 9.601 33.1236
O 32.6004 28.6029 15.0382
H 32.3146 29.362 14.53
H 31.8402 28.0213 15.0491
O 8.14399 1.49047 27.9455
H 7.42423 2.02499 27.6101
H 8.52773 1.08846 27.1662
O 6.39417 15.1547 20.6453
H 5.59888 15.5583 20.2976
H 7.10547 15.5596 20.149
O 21.3924 1.63288 12.1948
H 20.4991 1.91876 12.3859
H 21.3674 1.36548 11.276
O 17.9192 16.4916 14.934
H 17.8122 16.9844 15.7476
H 17.4433 15.6748 15.0837
O 32.8276 32.3207 17.2392
H 1.43366 32.292 17.3444
H 32.5116 32.7549 18.0315
O 22.7714 11.0825 9.96409
H 23.1647 11.5344 10.7106
H 22.9941 10.161 10.0968
O 30.9251 17.3684 22.444
H 31.0675 16.4297 22.3224
H 31.3931 17.5794 23.2519
O 31.4094 24.3025 3.33835
H 31.3168 23.3507 3.29616
H 31.8949 24.5317 2.54587
O 24.7477 4.08353 17.9614
H 24.882 3.25562 18.4227
H 25.5564 4.21671 17.467
O 28.7337 15.5443 9.73636
H 28.4072 15.0728 8.97
H 28.1654 15.261 10.4526
O 9.88865 25.1367 27.3497
H 10.5282 24.4521 27.1534
H 9.09172 24.6608 27.5834
O 4.61918 27.0431 20.475
H 4.8326 26.1859 20.8435
H 3.85197 27.3324 20.9689
O 8.68391 25.266 2.29462
H 9.47347 24.8072 2.5815
H 8.34888 24.7373 1.57042
O 16.0721 16.097 10.6931
H 16.113 15.9354 9.7505
H 16.9352 15.8409 11.0181
O 17.1773 32.8324 5.37196
H 18.1264 32.7276 5.30412
H 16.9794 32.6386 6.2882
O 5.1707 22.0624 4.82853
H 4.83993 21.2229 5.14804
H 4.49895 22.3689 4.21938
O 26.7782 13.8178 30.1029
H 26.3857 13.0536 30.5252
H 26.0426 14.2648 29.6841
O 28.5995 10.5317 22.6297
H 28.3036 10.7747 21.7524
H 29.1475 11.2647 22.9098
O 2.91731 31.204 13.1296
H 3.28339 30.5425 12.5426
H 2.86094 31.9953 12.594
O 32.2503 32.5361 10.5149
H 33.19 32.545 10.6971
H 32.1882 32.3182 9.58493
O 24.8123 10.5034 15.8718
H 25.6433 10.7737 16.2626
H 24.2314 11.2531 16.0008
O 7.25182 7.75242 9.95872
H 7.35398 8.69973 10.0504
H 7.2314 7.60359 9.01338
O 17.6185 29.9435 14.6879
H 18.0679 30.7837 14.5965
H 16.7885 30.1603 15.1127
O 2.29105 3.4687 16.3524
H 1.81213 3.66812 17.1568
H 2.53639 4.32449 16.0007
O 29.4395 11.4614 26.495
H 29.7594 11.9428 25.732
H 29.1923 12.1416 27.1215
O 32.267 26.7747 17.7976
H 31.9629 26.0588 18.3555
H 31.7676 26.6759 16.9869
O 27.4127 14.2415 22.4722
H 26.4877 14.0019 22.4167
H 27.7179 14.2319 21.565
O 28.3068 24.993 8.3298
H 28.4983 24.299 7.69897
H 27.4912 25.3839 8.01629
O 29.681 28.5544 33.0242
H 29.041 28.4438 32.3211
H 30.3508 27.8945 32.8451
O 24.9668 6.05501 29.9355
H 25.789 6.45064 30.2249
H 24.3485 6.24275 30.6417
O 6.11641 26.5676 27.3253
H 6.49736 26.8136 28.1683
H 5.3397 26.0566 27.553
O 1.46349 14.7458 11.265
H 1.35115 15.6781 11.4505
H 33.232 14.5783 10.5194
O 9.24475 29.8728 3.62303
H 9.09119 29.2049 2.95484
H 8.58409 29.6981 4.29329
O 25.5405 23.6499 26.6793
H 26.0127 22.8266 26.5549
H 26.1518 24.3243 26.3833
O 3.45853 30.0402 24.047
H 3.52691 30.9927 23.9818
H 3.08962 29.8851 24.9165
O 22.7418 25.5722 12.815
H 22.1609 24.9541 12.3713
H 23.4185 25.0234 13.2113
O 9.47058 3.37747 10.0588
H 10.3276 3.70835 10.3277
H 9.28206 3.83656 9.24034
O 31.9682 28.9671 11.3254
H 31.2575 28.3677 11.0977
H 32.685 28.3957 11.601
O 19.3744 25.3001 30.0971
H 19.3919 25.7668 29.2615
H 19.3409 24.3747 29.8545
O 2.08863 2.40736 31.3234
H 1.19151 2.71417 31.192
H 2.59413 2.84252 30.6369
O 22.8231 28.2515 6.21477
H 22.9603 27.4897 6.7779
H 22.3623 27.9051 5.45061
O 24.6113 31.3009 22.2245
H 24.8272 30.3684 22.229
H 23.7613 31.3484 21.787
O 12.8465 19.8711 5.46044
H 12.7633 20.8185 5.35224
H 12.1639 19.5045 4.89828
O 14.0311 30.1069 18.5294
H 14.3681 30.1164 17.6336
H 14.3779 29.2989 18.9078
O 23.7274 4.3177 20.7602
H 24.2436 3.51649 20.6715
H 23.2996 4.2345 21.6124
O 8.38088 9.71437 31.4942
H 7.51516 9.37443 31.2679
H 8.49525 9.48493 32.4164
O 28.0124 29.4217 8.45798
H 28.8264 28.9765 8.22231
H 28.2431 30.3505 8.47469
O 6.96579 6.54398 32.1576
H 6.66861 7.15551 31.4838
H 7.90229 6.43873 31.9899
O 23.7753 2.71176 9.27931
H 24.5537 2.19898 9.06149
H 23.0751 2.06381 9.35708
O 22.9163 8.62135 16.1403
H 22.2286 9.1702 16.5174
H 23.6792 9.19676 16.0849
O 5.76267 7.62755 1.95296
H 5.53971 8.54418 2.11516
H 6.34375 7.6528 1.19274
O 22.1003 17.6298 15.5981
H 21.461 17.0259 15.22
H 22.5858 17.9674 14.8454
O 23.104 16.8496 30.6975
H 23.8355 16.9265 31.31
H 23.5 16.5187 29.8912
O 16.5614 22.159 5.23943
H 15.8242 21.8046 4.74228
H 16.3282 22.0073 6.15533
O 12.375 23.2865 14.5053
H 13.0495 23.286 13.8261
H 12.8482 23.4857 15.3132
O 26.7343 5.45689 16.0355
H 26.9773 5.93697 16.8272
H 27.4192 4.79571 15.936
O 21.6067 1.04871 9.56401
H 20.8563 1.22257 8.9958
H 21.7004 32.4411 9.55309
O 4.14782 5.58966 24.2265
H 3.42779 4.9607 24.2735
H 3.76073 6.3681 23.826
O 20.569 6.15621 17.7763
H 21.2138 5.45794 17.8899
H 20.1259 5.94241 16.9552
O 27.1912 25.2597 20.4916
H 27.3477 26.2021 20.5521
H 26.3792 25.1195 20.9787
O 5.82169 13.9754 24.0216
H 4.98008 13.5373 24.1482
H 6.05554 13.7879 23.1126
O 6.62417 8.65282 13.4875
H 6.81912 8.90557 14.3899
H 7.42509 8.85415 13.0036
O 18.5539 33.2583 24.2839
H 19.2977 33.1146 24.869
H 18.3225 1.83336 24.4114
O 7.43668 22.7095 23.8926
H 6.72171 22.1981 23.5138
H 7.00395 23.4537 24.311
O 15.68 26.8948 12.8099
H 15.5926 26.9207 13.7628
H 16.3863 26.2687 12.6506
O 8.90522 1.90608 5.45073
H 9.75976 1.81249 5.87173
H 8.28307 1.94698 6.17701
O 29.016 4.84724 20.8547
H 28.5278 4.51964 21.6101
H 28.385 5.38453 20.3758
O 2.14082 1.7224 9.02388
H 2.85909 1.12666 8.81078
H 2.40476 2.13141 9.84807
O 17.8276 31.33 20.7229
H 18.0326 30.5707 21.2685
H 18.3126 31.1802 19.9113
O 33.2268 14.5488 31.9395
H 1.42505 14.1087 31.2856
H 1.36599 14.4501 32.7593
O 12.0012 25.1037 8.16021
H 11.4177 24.4838 7.72273
H 12.4532 25.5529 7.44593
O 15.9909 20.8527 31.6947
H 16.2425 19.9393 31.5581
H 15.1522 20.9409 31.242
O 6.80766 25.5034 24.6188
H 6.57359 25.81 25.4948
H 7.64381 25.9298 24.4308
O 30.0446 28.0476 22.8301
H 29.198 28.4239 22.5893
H 30.24 27.4273 22.1278
O 16.1065 33.1404 25.5912
H 16.998 33.0526 25.2538
H 15.5459 32.9852 24.8311
O 23.7552 17.9913 17.9872
H 24.5771 17.5011 17.9696
H 23.5546 18.1568 17.066
O 27.3009 22.6969 19.0835
H 27.8613 22.168 19.6514
H 27.3478 23.5784 19.4535
O 32.3644 21.6848 5.6187
H 32.9872 21.0925 5.19727
H 32.9009 22.4115 5.93533
O 29.8428 5.07367 7.81086
H 30.2969 5.66167 7.20737
H 30.4251 4.31856 7.89404
O 28.9983 30.1473 25.6721
H 29.4579 30.9747 25.8151
H 28.1239 30.2929 26.0332
O 19.9088 21.5443 25.4479
H 20.5391 21.9114 24.8281
H 19.1779 22.1624 25.4415
O 17.0832 4.51536 3.77437
H 16.5117 4.74015 3.04011
H 16.4872 4.20473 4.45595
O 19.4968 10.342 28.9728
H 19.8927 11.1284 28.5973
H 18.6428 10.2759 28.5457
O 28.8185 4.67043 12.6314
H 28.6774 3.93961 13.2333
H 28.7688 5.44997 13.1847
O 4.26004 13.0367 17.9105
H 3.7383 12.7419 18.6569
H 3.62038 13.1841 17.2138
O 10.6428 15.0065 8.3721
H 10.7285 15.7042 9.02175
H 10.3061 15.4457 7.59113
O 26.6353 29.3982 17.9045
H 27.3307 29.9844 18.2027
H 26.8562 28.5493 18.2877
O 12.3852 31.7755 27.6025
H 13.3125 31.7707 27.8399
H 12.3723 31.5205 26.68
O 5.08264 16.4916 10.6695
H 5.17349 16.8179 9.77423
H 5.82922 15.9044 10.7878
O 22.472 7.14284 22.5363
H 22.7051 7.65327 23.3117
H 23.3121 6.87456 22.1641
O 3.15193 11.803 2.85816
H 2.24865 11.5642 3.0663
H 3.54666 12.0102 3.70521
O 26.68 12.3745 17.6675
H 27.413 12.4242 17.054
H 27.0512 12.6446 18.5074
O 9.20609 25.3119 10.8092
H 9.62529 24.4543 10.8798
H 9.11315 25.6088 11.7145
O 28.1741 27.0916 16.7958
H 28.8744 26.8375 16.1948
H 27.5552 26.362 16.7654
O 7.48018 17.5201 4.52439
H 6.61681 17.4029 4.92073
H 8.07312 17.0257 5.09026
O 13.9143 31.17 1.97302
H 14.2916 30.9025 2.81102
H 14.0832 30.4321 1.38721
O 21.2108 11.8562 6.56644
H 21.7827 12.3902 7.11791
H 21.6592 11.013 6.50146
O 31.3382 22.9522 9.37358
H 31.4788 22.2096 8.78621
H 30.7499 22.6155 10.0495
O 31.6094 33.1509 33.1995
H 31.9462 32.6025 32.491
H 30.818 32.7012 1.15064
O 2.60916 4.94265 1.60226
H 3.28186 4.79175 0.93823
H 2.33925 4.06546 1.87412
O 2.5426 14.3422 2.18769
H 2.79544 13.4666 2.4801
H 2.15239 14.75 2.96078
O 20.2673 2.54818 15.361
H 19.5946 2.26993 15.9824
H 19.8393 2.49971 14.5062
O 31.1219 32.7214 7.83501
H 30.187 32.5796 7.98319
H 31.2117 32.7542 6.88259
O 7.27044 23.578 32.8257
H 7.00848 23.9217 31.9716
H 8.0038 22.9933 32.6345
O 32.0653 15.7602 2.71053
H 32.265 16.2527 3.50666
H 32.0521 16.42 2.01717
O 20.5522 5.38738 21.3153
H 21.3102 5.83819 21.6873
H 20.5962 4.50327 21.6795
O 31.5976 22.5985 30.5187
H 32.2161 22.7555 31.2321
H 31.0697 23.396 30.4788
O 11.0488 29.5563 21.2073
H 11.4277 30.4054 20.98
H 11.776 29.0627 21.5864
O 14.1941 2.2798 1.9626
H 13.9305 2.25338 1.04277
H 13.5461 2.84609 2.38172
O 29.9994 27.2566 8.02069
H 30.8575 27.1202 7.61928
H 29.5837 26.3947 7.99721
O 10.6136 29.4169 15.5143
H 10.1892 30.1715 15.9226
H 11.4224 29.7687 15.1423
O 1.47476 16.0837 7.66907
H 2.30908 15.7767 8.02393
H 1.57563 16.0091 6.72012
O 6.1052 19.6598 25.6214
H 6.99252 19.8195 25.2998
H 5.53518 20.0018 24.9326
O 7.45553 12.5209 7.72659
H 7.0338 13.2176 8.22954
H 8.39282 12.6915 7.81946
O 14.6862 23.5542 12.7499
H 14.3166 23.9413 11.9563
H 15.4227 24.1232 12.9739
O 15.8234 17.2025 28.5012
H 15.0727 16.9156 27.9812
H 16.2986 17.8022 27.9262
O 17.5406 25.4959 21.466
H 18.32 25.4218 20.9153
H 16.9473 26.0582 20.9678
O 31.9628 18.4057 14.4044
H 31.7896 17.707 13.7735
H 31.1316 18.526 14.8635
O 32.119 23.819 22.1033
H 32.1105 24.0107 21.1655
H 31.2176 23.9706 22.3874
O 31.9523 4.69881 15.0885
H 31.5284 5.35749 14.5383
H 32.7389 5.13251 15.4193
O 20.2024 28.7163 30.9116
H 19.7375 28.2328 30.2288
H 21.0923 28.8142 30.5728
O 9.31603 14.2667 22.9986
H 9.65127 14.9622 22.4328
H 10.0788 13.975 23.4979
O 3.17892 19.178 9.34608
H 4.08021 18.9128 9.16285
H 3.15704 20.1124 9.1396
O 28.3216 2.92982 22.7905
H 28.0717 2.93474 23.7145
H 29.0132 2.27061 22.7325
O 24.0894 5.70638 15.5523
H 23.7111 5.47223 16.3999
H 25.0342 5.61927 15.679
O 4.85845 5.09285 8.76309
H 5.15871 5.35388 7.8925
H 4.00598 4.68506 8.61068
O 13.767 17.85 14.4848
H 13.3693 18.1997 13.6875
H 13.1709 17.1558 14.7659
O 28.4769 19.8104 2.64862
H 27.9074 20.3291 3.2169
H 28.9294 20.4574 2.10738
O 25.5776 4.95679 12.722
H 26.4986 4.78546 12.5255
H 25.4156 5.83166 12.369
O 25.3364 9.13399 31.9486
H 25.903 8.7723 31.2672
H 25.6724 8.76029 32.7633
O 7.3249 4.65664 11.7101
H 8.12977 4.33775 11.3017
H 6.6233 4.19794 11.2479
O 23.5565 27.5973 20.5711
H 24.0839 28.1651 21.1331
H 23.4006 28.1176 19.783
O 25.7467 17.5109 2.8446
H 25.4297 16.6797 3.19793
H 25.0297 18.1261 2.99852
O 10.5514 16.788 10.4039
H 11.0073 17.4706 10.8963
H 9.95224 17.2655 9.83015
O 1.00291 26.1029 23.8782
H 1.14 26.5942 23.0682
H 32.7078 25.4303 23.6454
O 17.2264 27.3786 9.9121
H 16.4031 27.8405 10.0706
H 17.6111 27.8258 9.15827
O 12.7394 19.1718 23.2492
H 12.1069 18.733 23.818
H 13.5917 18.9607 23.6303
O 27.9265 8.72331 9.05227
H 28.0431 8.16408 9.82033
H 27.2147 8.31217 8.56187
O 21.3002 27.0032 18.0872
H 22.1477 26.6415 17.828
H 20.792 26.2436 18.3717
O 28.5544 10.645 5.45016
H 27.8869 11.3104 5.61735
H 29.0133 10.5504 6.28483
O 18.5428 30.7428 17.9246
H 19.375 30.5221 18.3429
H 18.5898 31.6879 17.7805
O 28.5131 13.7059 27.6523
H 28.0239 13.8256 28.4663
H 29.3072 14.2271 27.7707
O 16.9003 10.2958 25.0335
H 15.9439 10.2598 25.0149
H 17.1178 10.4195 25.9574
O 1.53634 17.6883 11.085
H 0.943694 18.3312 11.4744
H 1.9551 18.155 10.3618
O 11.8565 23.991 19.456
H 12.5342 23.9228 20.1285
H 12.314 23.8094 18.635
O 28.0699 27.4986 2.60664
H 28.1643 26.5533 2.48943
H 28.7053 27.8801 2.00091
O 12.478 26.7509 16.0988
H 12.2132 26.4533 15.2284
H 12.8585 25.9759 16.512
O 1.65015 26.9632 11.8514
H 2.27655 26.5386 11.2653
H 2.14173 27.1153 12.6586
O 5.44337 13.0388 12.3888
H 6.17555 13.4464 11.9262
H 4.68291 13.2112 11.8336
O 16.5575 10.9733 31.0298
H 16.6481 10.9387 30.0775
H 16.3115 10.0827 31.28
O 18.248 18.7804 2.70542
H 17.5908 18.1925 2.33312
H 18.2031 19.5663 2.16077
O 19.3035 18.3215 11.3001
H 18.502 18.7608 11.5844
H 19.1564 17.398 11.5044
O 8.68129 11.452 20.1527
H 8.71191 12.2382 19.6076
H 9.42398 11.5446 20.7494
O 1.23367 20.169 30.7976
H 1.41246 20.8803 31.4126
H 32.6236 20.1119 30.7677
O 23.0474 11.7637 22.6322
H 23.3672 11.1648 23.3069
H 23.6378 12.5157 22.6795
O 27.7271 19.5947 23.7538
H 28.2291 19.7581 22.9553
H 27.0003 20.2163 23.7117
O 23.743 20.4482 11.2985
H 23.8109 20.2142 10.3728
H 24.4193 21.113 11.4283
O 28.6603 18.6885 26.8574
H 29.4787 19.0846 26.5583
H 28.8022 18.5184 27.7886
O 30.643 6.17332 10.3083
H 30.0191 5.73966 10.8904
H 30.3463 5.94686 9.42688
O 9.21494 28.2299 1.39844
H 9.30966 27.2832 1.50353
H 9.52056 28.4043 32.8532
O 24.9555 29.6482 6.2078
H 24.1103 29.2281 6.04849
H 24.8369 30.5485 5.90507
O 19.8028 11.3509 31.7266
H 20.6282 11.8219 31.8411
H 19.6911 11.2895 30.7779
O 28.5517 30.7407 19.6644
H 28.2681 30.1041 20.3206
H 28.0888 31.546 19.8955
O 9.24227 23.1137 18.4463
H 9.40452 23.41 17.5507
H 9.88244 22.4163 18.588
O 4.82266 22.3861 32.9272
H 4.35414 22.9089 1.23291
H 5.6846 22.7975 32.8642
O 7.84523 12.7654 33.1
H 7.50691 13.4315 1.35339
H 7.17576 12.6914 32.4199
O 2.17966 27.9373 21.9226
H 1.47157 28.2186 21.3432
H 2.34434 28.6939 22.4852
O 4.44916 15.5763 32.9597
H 3.88668 15.0271 1.1609
H 5.29707 15.5678 1.0588
O 2.41617 24.0267 15.9056
H 1.73501 24.5482 15.4809
H 2.0814 23.1303 15.8827
O 9.46212 23.6227 15.8023
H 9.11405 24.4857 15.5778
H 10.3559 23.6279 15.4597
O 9.92193 21.4545 26.9809
H 9.74315 20.6491 27.4664
H 9.2426 22.0642 27.269
O 24.7737 29.4313 31.9944
H 24.8293 30.302 31.6005
H 24.8358 28.8284 31.2535
O 13.3951 28.4252 21.9777
H 13.9496 28.2859 22.7454
H 13.9126 28.0924 21.2444
O 26.2741 16.7926 17.4063
H 25.8579 15.9493 17.2276
H 26.8338 16.9498 16.6459
O 32.9582 14.1072 13.9655
H 32.4725 14.2202 14.7826
H 1.4678 14.5025 14.1376
O 28.4713 24.3874 27.9238
H 28.2113 25.3068 27.867
H 27.8187 23.9885 28.4993
O 15.1262 8.87839 2.97246
H 15.9529 8.69488 2.52627
H 15.0462 8.18287 3.62521
O 9.70507 11.0309 1.97728
H 10.5082 11.2971 1.52963
H 9.01535 11.5471 1.56011
O 13.4565 8.90011 29.7211
H 13.7531 9.37358 28.9438
H 14.2424 8.80646 30.2594
O 26.419 20.9087 26.3901
H 25.6827 20.3691 26.6783
H 26.8817 20.3633 25.754
O 8.37241 30.25 27.0516
H 8.7609 30.3864 27.9157
H 8.89408 29.5484 26.662
O 31.5729 15.1069 9.73893
H 32.0738 15.1975 8.92833
H 30.9281 14.4259 9.54769
O 1.57022 29.472 4.46183
H 0.944165 28.9426 4.95578
H 1.98763 30.0269 5.12064
O 1.26634 1.78159 14.5837
H 33.2288 2.25511 13.845
H 1.52259 2.46669 15.2011
O 7.29015 24.2221 20.2662
H 6.75517 24.1339 21.0551
H 6.82802 24.8698 19.734
O 18.7586 22.2812 30.4098
H 19.317 21.7642 30.9905
H 17.8669 22.0185 30.6379
O 10.0081 8.3075 24.3541
H 9.11197 8.64194 24.3913
H 10.4588 8.74825 25.0744
O 10.8745 15.3551 17.8977
H 11.7033 15.047 18.2642
H 10.9108 15.1014 16.9754
O 20.0951 20.2867 31.9528
H 20.8713 20.8351 31.8387
H 19.9778 19.8577 31.1052
O 14.4074 14.4611 12.3106
H 13.5236 14.6283 11.9831
H 14.9839 14.8682 11.6641
O 33.211 10.1714 16.7416
H 32.259 10.1256 16.8307
H 1.063 9.62006 15.9843
O 4.26956 2.15221 21.862
H 3.62891 2.78299 22.1905
H 4.53046 2.49761 21.0083
O 3.1365 5.70749 19.7305
H 2.44945 5.04629 19.8142
H 3.80513 5.29125 19.1865
O 1.99498 3.55683 22.8975
H 1.65942 4.06747 23.6343
H 1.82718 2.64628 23.1404
O 10.9283 3.82598 6.00095
H 11.5809 3.89164 5.30385
H 11.3103 4.30905 6.73369
O 15.5859 19.6164 10.5432
H 15.7887 20.2699 11.2125
H 15.056 18.9624 10.999
O 3.95681 7.51623 21.5621
H 3.50153 6.88821 21.0012
H 3.31759 8.21315 21.7102
O 32.5878 23.0159 25.8076
H 32.4574 22.3904 26.5204
H 31.7574 23.4881 25.7478
O 25.1924 14.8252 3.53104
H 25.0797 14.4869 2.64274
H 25.7387 14.1724 3.9689
O 18.3536 13.9861 32.3539
H 19.2896 14.1523 32.2417
H 17.9553 14.2991 31.5418
O 11.8086 9.96503 19.6787
H 12.6853 9.58428 19.7294
H 11.645 10.3085 20.5571
O 10.2817 9.41632 4.2074
H 10.2834 10.0619 3.50073
H 10.5878 9.89963 4.97481
O 12.5924 15.9446 28.5398
H 12.9095 16.1448 27.6591
H 12.1789 16.7554 28.8361
O 3.17168 32.5131 17.6366
H 4.04059 32.4147 18.0259
H 3.22878 0.973715 17.1227
O 2.78667 27.7112 14.3006
H 3.18412 27.5438 15.1552
H 1.94501 28.1196 14.5033
O 27.5891 2.94458 25.1793
H 28.2972 2.78136 25.8023
H 27.2113 3.77864 25.4585
O 27.8083 2.5913 10.0526
H 28.0053 1.77656 9.5904
H 28.6635 2.92934 10.3182
O 12.2978 3.06395 25.2632
H 12.9651 2.61079 24.7479
H 11.4947 2.56767 25.1054
O 24.5584 24.0951 14.198
H 23.9298 23.5322 14.65
H 25.281 24.194 14.818
O 18.8943 15.3789 24.8364
H 18.8927 16.1162 25.4468
H 19.8212 15.1857 24.696
O 10.0366 20.5675 2.79477
H 10.7974 20.3877 2.24238
H 9.52946 19.7559 2.7763
O 6.91392 15.0046 1.71808
H 7.84088 15.2038 1.58651
H 6.78275 15.0858 2.66276
O 28.0877 21.8932 13.3774
H 28.2591 22.8288 13.4841
H 27.1609 21.8441 13.1433
O 5.64115 13.6109 31.4288
H 5.21154 14.2903 31.9484
H 5.03931 13.4476 30.7026
O 22.3732 23.721 5.25518
H 22.5381 23.7248 4.3123
H 22.926 24.4231 5.59829
O 6.63432 2.70665 31.3861
H 6.41543 1.90883 30.9046
H 5.87457 3.27615 31.2649
O 27.1587 25.3472 25.186
H 26.3492 25.8078 24.9649
H 27.8317 26.0278 25.1787
O 9.00721 31.1178 19.2446
H 8.87721 30.1816 19.0934
H 8.12931 31.4947 19.1853
O 18.9284 31.5281 12.8986
H 19.3977 31.4618 12.0671
H 19.5993 31.7791 13.5336
O 31.6781 30.5738 28.0902
H 31.4049 30.973 27.2642
H 32.499 30.1281 27.8814
O 24.5685 7.745 12.4443
H 24.1735 7.89991 11.5863
H 24.8445 8.61202 12.7415
O 18.9841 28.5393 24.8598
H 18.4725 27.7401 24.7339
H 18.9365 28.7089 25.8006
O 23.6235 29.2184 17.9975
H 24.5621 29.3813 18.0907
H 23.5689 28.4411 17.4416
O 20.6325 26.703 27.8869
H 19.7694 27.0636 27.6838
H 20.9842 26.4304 27.0395
O 6.56394 11.6478 3.77682
H 5.97184 11.918 4.4787
H 7.25643 12.3086 3.77928
O 11.8537 22.7273 29.3312
H 12.449 22.1899 29.8537
H 10.9856 22.5408 29.6888
O 31.5562 6.8492 12.8689
H 31.6788 7.0297 11.9369
H 32.2817 7.30238 13.2986
O 6.05776 29.6259 24.1057
H 6.13314 29.5409 25.0562
H 5.11833 29.7178 23.9468
O 20.5595 7.91888 10.727
H 21.4439 7.93724 10.3612
H 20.686 7.69774 11.6497
O 28.8508 14.8124 31.6443
H 28.2155 14.4628 31.0195
H 29.2477 15.5568 31.192
O 4.23372 20.1433 12.5261
H 4.93221 19.5235 12.3161
H 4.66169 20.9995 12.5163
O 21.1388 4.78582 31.2715
H 21.8862 5.26126 31.6343
H 21.5106 4.25616 30.5663
O 30.8452 19.8838 32.0225
H 30.5429 20.7691 32.2253
H 30.3448 19.6312 31.2466
O 3.49733 21.6181 7.98356
H 4.42209 21.8122 8.13643
H 3.1297 22.4407 7.6603
O 28.5195 24.4758 31.9539
H 27.7997 25.0821 32.1286
H 29.0434 24.9124 31.2823
O 1.74289 20.2064 1.96056
H 2.52776 20.0192 1.44561
H 1.2867 20.886 1.46436
O 6.24644 24.4499 30.4773
H 6.67987 25.2992 30.3924
H 6.52289 23.9609 29.7022
O 23.6178 25.2586 27.9621
H 24.371 24.6758 27.8657
H 22.9063 24.6858 28.248
O 25.629 22.3425 12.2113
H 25.2566 22.8845 12.9069
H 25.7634 22.9474 11.4817
O 8.34233 17.0398 8.73022
H 8.10461 16.2386 9.19693
H 8.76818 16.7337 7.92947
O 9.63696 13.856 4.60841
H 9.28304 14.2857 3.82975
H 9.48038 14.4788 5.31827
O 15.2681 18.1434 2.14813
H 14.639 18.8247 1.91096
H 15.0325 17.9003 3.04346
O 30.7631 20.4668 19.0902
H 31.5952 20.3116 18.6433
H 30.4144 21.2583 18.68
O 27.6821 7.98292 5.12783
H 27.8439 8.92221 5.21597
H 28.5223 7.61984 4.84783
O 4.91789 32.9553 25.2397
H 5.71409 32.7376 24.755
H 5.14444 1.39979 25.7313
O 11.7649 31.8822 11.644
H 11.8014 31.9688 12.5966
H 11.5963 30.952 11.4938
O 24.2915 17.6454 21.1277
H 23.9105 17.5556 22.0012
H 24.0027 16.8627 20.6583
O 32.8088 18.6647 20.7612
H 1.22466 18.0882 20.6903
H 32.1662 18.1544 21.2542
O 2.41598 19.626 14.4515
H 2.57533 18.6851 14.3771
H 3.12386 20.0297 13.9494
O 10.8412 16.5825 14.9761
H 9.93193 16.2834 14.9692
H 11.1919 16.3039 14.1302
O 29.8541 2.02212 4.58721
H 29.181 2.39405 5.15722
H 30.4155 2.76423 4.36288
O 2.44705 9.83063 28.279
H 3.13827 9.30836 27.872
H 2.65304 10.7331 28.0353
O 8.06825 22.8759 28.2236
H 7.25487 22.3998 28.391
H 8.49672 22.9267 29.0781
O 8.30529 3.55492 1.27528
H 7.83983 3.3676 32.8051
H 8.32142 2.71832 1.74012
O 3.58206 19.5291 28.4929
H 2.87385 19.718 27.8773
H 3.94657 20.3871 28.71
O 11.1997 11.6215 15.1714
H 10.563 12.3355 15.1383
H 11.102 11.1737 14.3311
O 2.39598 33.0815 23.4062
H 2.47559 32.8672 24.3356
H 3.27475 1.01455 23.1478
O 22.6964 4.10207 12.2037
H 22.3935 3.1947 12.2383
H 23.1895 4.15943 11.3853
O 25.2736 32.431 5.50863
H 25.5661 33.0095 6.2129
H 24.4014 32.7525 5.28053
O 2.02781 12.4165 16.207
H 1.57426 11.5864 16.3532
H 1.95606 12.5665 15.2644
O 24.1359 12.3906 12.0157
H 24.7388 13.1096 11.8265
H 24.6417 11.7912 12.5644
O 20.4955 28.7512 16.1753
H 20.516 28.2444 15.3635
H 20.6989 28.1148 16.8608
O 9.39811 29.5156 12.9818
H 9.96193 29.806 13.6987
H 9.14911 28.6223 13.219
O 15.5383 24.2961 33.0759
H 16.3504 23.9537 1.10442
H 15.4172 25.1446 1.15714
O 3.83509 4.15139 13.6441
H 4.71047 4.44604 13.8953
H 3.69072 4.53734 12.7801
O 11.5942 5.11417 8.33834
H 11.4608 5.83475 8.95411
H 12.5448 5.05086 8.24541
O 30.6065 28.1559 28.6533
H 29.6573 28.1653 28.5303
H 30.9155 28.9384 28.1968
O 3.43156 23.8528 2.66147
H 2.60666 23.9988 2.19836
H 3.36456 24.3948 3.44764
O 30.8667 7.28101 19.0565
H 31.7374 7.51754 18.7368
H 30.5986 6.54795 18.5025
O 13.9905 30.9894 6.87163
H 14.7783 31.4431 7.17131
H 14.1125 30.0836 7.15573
O 30.2506 9.85032 7.57492
H 29.7028 9.35927 8.18732
H 30.8278 9.19193 7.18822
O 6.02122 15.0905 17.756
H 6.81839 14.8104 18.2057
H 5.41467 14.358 17.864
O 16.5402 21.844 23.282
H 15.8119 21.4803 23.7853
H 16.7545 22.6635 23.7279
O 24.8036 29.8334 11.5574
H 23.987 30.2765 11.7881
H 25.4915 30.4385 11.8346
O 30.4259 4.90971 17.4321
H 29.8331 4.17096 17.5701
H 30.8362 4.7333 16.5854
O 22.1015 22.2442 23.4543
H 21.8287 22.2587 22.5369
H 22.779 22.9177 23.5139
O 24.489 10.4137 24.8025
H 25.4098 10.1696 24.7091
H 24.4503 10.8919 25.6308
O 8.03925 32.1618 25.0659
H 7.98037 31.559 25.8071
H 8.43139 31.6419 24.3643
O 18.0534 23.7311 17.6702
H 18.6677 24.2408 18.1985
H 17.2249 24.2052 17.7415
O 17.8596 23.0299 14.7312
H 17.8638 23.306 15.6477
H 18.7313 22.6617 14.5874
O 20.2568 28.5414 21.169
H 20.8272 28.801 20.4455
H 20.2423 29.3033 21.7483
O 24.6387 27.0171 1.68898
H 25.0093 26.6718 33.2218
H 24.0911 26.307 2.02388
O 21.2269 14.2534 25.6868
H 21.444 13.8356 26.5202
H 22.0749 14.4567 25.2922
O 13.1789 9.60835 13.8951
H 13.4035 9.09858 14.6735
H 13.5363 10.4795 14.0673
O 30.0175 12.774 8.55806
H 29.481 12.1372 9.03009
H 29.4436 13.1067 7.868
O 29.6166 31.287 11.0299
H 29.2479 31.8674 10.364
H 30.5585 31.4549 10.9996
O 29.4197 3.18055 32.7753
H 29.6143 2.28083 33.0377
H 28.51 3.15265 32.4789
O 5.64453 8.83976 30.7635
H 5.05999 9.43912 31.2275
H 5.35193 8.87613 29.8529
O 18.3305 13.5334 27.3833
H 17.9585 12.6913 27.6456
H 19.183 13.5648 27.8175
O 18.1934 5.02336 29.5857
H 18.5472 4.78754 28.7281
H 18.8857 5.54095 29.9968
O 29.4678 2.70576 19.0877
H 30.322 2.46863 19.4486
H 29.2124 3.49108 19.5717
O 28.9933 16.3782 2.20294
H 28.8475 15.6109 1.64964
H 29.9089 16.3088 2.47323
O 15.2741 13.3166 30.8109
H 15.4017 12.3694 30.7582
H 16.0757 13.6876 30.4422
O 21.9369 14.1935 12.7445
H 22.3903 15.0352 12.6978
H 22.5416 13.5724 12.3384
O 3.06379 6.27265 27.4919
H 3.21849 5.41703 27.8922
H 3.40789 6.1874 26.6028
O 15.6275 32.4103 32.6737
H 16.0049 31.6329 32.2621
H 14.935 32.0697 33.24
O 9.57516 22.8432 22.101
H 9.56069 22.0319 21.5933
H 8.887 22.7285 22.7564
O 22.2329 20.8387 18.5051
H 22.4166 21.5232 17.8618
H 21.6477 20.2329 18.0504
O 16.3256 29.696 12.2574
H 17.0772 29.7988 12.8412
H 16.1008 28.7674 12.3169
O 28.6646 10.7695 13.9822
H 29.6185 10.7799 13.9029
H 28.4912 10.1786 14.715
O 17.5586 24.5973 12.6017
H 17.6997 24.2057 13.4636
H 17.6999 23.8786 11.9855
O 25.9178 1.03419 24.2359
H 25.1317 1.44163 24.5996
H 26.5811 1.72366 24.2656
O 15.9533 29.23 26.3719
H 16.6397 28.7901 26.8734
H 15.805 30.0526 26.8383
O 7.76676 5.74442 19.1864
H 8.13372 6.62347 19.0924
H 7.61727 5.64611 20.1267
O 27.7218 21.266 28.99
H 28.1267 20.41 29.1301
H 27.2399 21.1719 28.1683
O 4.82865 4.84825 32.2705
H 4.63612 4.61911 31.3613
H 5.66334 5.31492 32.2288
O 12.4965 27.9011 27.4707
H 13.1784 28.2869 28.0207
H 11.8822 27.5078 28.0906
O 23.8989 27.0185 16.3874
H 24.0928 26.0855 16.4776
H 24.2056 27.2435 15.509
O 13.8134 25.6761 26.2189
H 14.743 25.7114 26.4443
H 13.4278 26.4259 26.672
O 30.4254 1.27341 14.2451
H 29.7219 1.83698 14.5671
H 30.2698 1.2099 13.3028
O 9.9993 12.0559 24.6346
H 9.08386 11.855 24.8292
H 10.4372 12.028 25.4853
O 22.4338 9.3006 28.1654
H 22.3968 10.1684 28.5677
H 23.1819 9.34388 27.5699
O 30.0983 24.3525 25.5763
H 29.5746 24.3339 26.3773
H 29.975 23.486 25.1888
O 18.5856 22.2889 11.5401
H 19.4202 22.6774 11.8022
H 18.4948 22.517 10.6149
O 24.1549 24.5027 31.2125
H 25.0588 24.2204 31.0727
H 23.6874 23.7018 31.4496
O 13.4693 12.8597 23.2288
H 13.2593 13.5207 22.5691
H 13.5656 13.3546 24.0424
O 4.73946 19.067 19.4499
H 4.45339 19.3665 18.5869
H 5.13303 19.8403 19.854
O 12.3148 8.34578 22.1653
H 11.5891 8.46838 22.7772
H 12.9698 8.98833 22.4379
O 31.0848 10.1312 20.2292
H 32.0258 10.0305 20.3726
H 30.9573 9.9079 19.3071
O 19.6096 30.5684 23.2706
H 19.2063 29.8459 23.7519
H 20.2073 30.972 23.9
O 11.0119 17.5423 24.5686