created by fftool

1745 atoms
1110 bonds
555 angles
4 atom types
1 bond types
1 angle types
0.000000 26.764354 xlo xhi
0.000000 26.764354 ylo yhi
0.000000 26.764354 zlo zhi
Atoms

      1       1    1  -1.112800  2.526793e+01  6.028002e+00  1.506038e+01  # Ow water
      2       1    2   0.556400  2.516871e+01  6.278982e+00  1.597875e+01  # Hw water
      3       1    2   0.556400  2.523980e+01  5.071253e+00  1.506867e+01  # Hw water
      4       2    1  -1.112800  2.099910e+01  3.357065e+00  3.751299e+00  # Ow water
      5       2    2   0.556400  2.014535e+01  3.087903e+00  4.090269e+00  # Hw water
      6       2    2   0.556400  2.144439e+01  3.746081e+00  4.504035e+00  # Hw water
      7       3    1  -1.112800  7.729676e+00  9.744973e+00  2.506300e+01  # Ow water
      8       3    2   0.556400  7.881891e+00  1.066813e+01  2.526508e+01  # Hw water
      9       3    2   0.556400  8.570453e+00  9.320261e+00  2.523313e+01  # Hw water
     10       4    1  -1.112800  9.834019e+00  1.000911e+01  3.911294e+00  # Ow water
     11       4    2   0.556400  9.515930e+00  9.110240e+00  3.827129e+00  # Hw water
     12       4    2   0.556400  9.451638e+00  1.032327e+01  4.730634e+00  # Hw water
     13       5    1  -1.112800  1.258761e+01  1.501874e+00  1.982458e+01  # Ow water
     14       5    2   0.556400  1.300571e+01  2.300420e+00  1.950249e+01  # Hw water
     15       5    2   0.556400  1.276725e+01  1.499363e+00  2.076476e+01  # Hw water
     16       6    1  -1.112800  1.155585e+01  9.700811e+00  1.477473e+01  # Ow water
     17       6    2   0.556400  1.144462e+01  1.065130e+01  1.479546e+01  # Hw water
     18       6    2   0.556400  1.134985e+01  9.454687e+00  1.387294e+01  # Hw water
     19       7    1  -1.112800  2.526773e+01  5.773068e+00  3.031386e+00  # Ow water
     20       7    2   0.556400  2.435664e+01  6.065385e+00  3.005251e+00  # Hw water
     21       7    2   0.556400  2.525617e+01  5.001872e+00  3.598265e+00  # Hw water
     22       8    1  -1.112800  1.454957e+01  1.614276e+00  1.305058e+01  # Ow water
     23       8    2   0.556400  1.383520e+01  2.250695e+00  1.308028e+01  # Hw water
     24       8    2   0.556400  1.480547e+01  1.497858e+00  1.396556e+01  # Hw water
     25       9    1  -1.112800  2.386664e+01  2.017950e+01  2.526460e+01  # Ow water
     26       9    2   0.556400  2.334374e+01  2.084024e+01  2.481047e+01  # Hw water
     27       9    2   0.556400  2.427310e+01  1.967113e+01  2.456276e+01  # Hw water
     28      10    1  -1.112800  4.227112e+00  2.526481e+01  1.454168e+01  # Ow water
     29      10    2   0.556400  3.521461e+00  2.484520e+01  1.404954e+01  # Hw water
     30      10    2   0.556400  4.957202e+00  2.464817e+01  1.448740e+01  # Hw water
     31      11    1  -1.112800  2.051782e+01  4.178944e+00  1.194662e+01  # Ow water
     32      11    2   0.556400  2.131893e+01  4.274202e+00  1.246177e+01  # Hw water
     33      11    2   0.556400  2.055942e+01  3.287342e+00  1.160087e+01  # Hw water
     34      12    1  -1.112800  2.526449e+01  1.617733e+01  2.138617e+01  # Ow water
     35      12    2   0.556400  2.526449e+01  1.533716e+01  2.184480e+01  # Hw water
     36      12    2   0.556400  2.508978e+01  1.595197e+01  2.047244e+01  # Hw water
     37      13    1  -1.112800  1.510200e+00  1.653838e+01  5.000242e+00  # Ow water
     38      13    2   0.556400  1.498609e+00  1.579427e+01  4.398251e+00  # Hw water
     39      13    2   0.556400  1.499393e+00  1.730782e+01  4.430960e+00  # Hw water
     40      14    1  -1.112800  7.836736e+00  1.097635e+01  9.838325e+00  # Ow water
     41      14    2   0.556400  8.320588e+00  1.120381e+01  9.044361e+00  # Hw water
     42      14    2   0.556400  7.017980e+00  1.059632e+01  9.519822e+00  # Hw water
     43      15    1  -1.112800  2.479789e+01  1.907454e+01  2.433066e+00  # Ow water
     44      15    2   0.556400  2.468607e+01  1.891143e+01  1.496518e+00  # Hw water
     45      15    2   0.556400  2.526937e+01  1.990639e+01  2.477185e+00  # Hw water
     46      16    1  -1.112800  1.231183e+01  2.522713e+01  1.982188e+01  # Ow water
     47      16    2   0.556400  1.158035e+01  2.516489e+01  1.920765e+01  # Hw water
     48      16    2   0.556400  1.309115e+01  2.524188e+01  1.926630e+01  # Hw water
     49      17    1  -1.112800  1.520319e+01  6.118634e+00  1.309448e+01  # Ow water
     50      17    2   0.556400  1.441376e+01  6.320340e+00  1.259215e+01  # Hw water
     51      17    2   0.556400  1.588439e+01  5.998198e+00  1.243289e+01  # Hw water
     52      18    1  -1.112800  1.217352e+01  1.679635e+01  1.016102e+01  # Ow water
     53      18    2   0.556400  1.283515e+01  1.629558e+01  9.683834e+00  # Hw water
     54      18    2   0.556400  1.166661e+01  1.723589e+01  9.478315e+00  # Hw water
     55      19    1  -1.112800  2.526692e+01  1.841278e+01  9.863292e+00  # Ow water
     56      19    2   0.556400  2.479199e+01  1.860106e+01  1.067274e+01  # Hw water
     57      19    2   0.556400  2.526430e+01  1.745768e+01  9.800118e+00  # Hw water
     58      20    1  -1.112800  2.512475e+01  1.689140e+01  2.394053e+01  # Ow water
     59      20    2   0.556400  2.520754e+01  1.767044e+01  2.339055e+01  # Hw water
     60      20    2   0.556400  2.523287e+01  1.721613e+01  2.483445e+01  # Hw water
     61      21    1  -1.112800  1.220362e+01  4.138331e+00  2.281339e+01  # Ow water
     62      21    2   0.556400  1.237683e+01  3.247650e+00  2.250857e+01  # Hw water
     63      21    2   0.556400  1.131403e+01  4.102924e+00  2.316497e+01  # Hw water
     64      22    1  -1.112800  4.394099e+00  1.159520e+01  1.314968e+01  # Ow water
     65      22    2   0.556400  4.673484e+00  1.072572e+01  1.286302e+01  # Hw water
     66      22    2   0.556400  4.271965e+00  1.208774e+01  1.233807e+01  # Hw water
     67      23    1  -1.112800  1.920631e+01  2.328274e+01  2.419572e+01  # Ow water
     68      23    2   0.556400  1.868687e+01  2.379760e+01  2.357820e+01  # Hw water
     69      23    2   0.556400  2.011036e+01  2.339735e+01  2.390281e+01  # Hw water
     70      24    1  -1.112800  1.297781e+01  1.039897e+01  8.520277e+00  # Ow water
     71      24    2   0.556400  1.300641e+01  1.006220e+01  9.415821e+00  # Hw water
     72      24    2   0.556400  1.282582e+01  1.133854e+01  8.621939e+00  # Hw water
     73      25    1  -1.112800  1.206593e+01  1.035404e+01  2.482542e+01  # Ow water
     74      25    2   0.556400  1.288707e+01  1.013246e+01  2.526458e+01  # Hw water
     75      25    2   0.556400  1.205701e+01  9.804494e+00  2.404175e+01  # Hw water
     76      26    1  -1.112800  2.351802e+01  1.606413e+00  7.784890e+00  # Ow water
     77      26    2   0.556400  2.445660e+01  1.499297e+00  7.630520e+00  # Hw water
     78      26    2   0.556400  2.333477e+01  2.510980e+00  7.531111e+00  # Hw water
     79      27    1  -1.112800  1.358143e+01  6.153703e+00  2.339883e+00  # Ow water
     80      27    2   0.556400  1.395840e+01  5.547013e+00  2.977102e+00  # Hw water
     81      27    2   0.556400  1.366859e+01  5.703829e+00  1.499499e+00  # Hw water
     82      28    1  -1.112800  2.305248e+01  1.759671e+01  8.643824e+00  # Ow water
     83      28    2   0.556400  2.290868e+01  1.845844e+01  9.034935e+00  # Hw water
     84      28    2   0.556400  2.314341e+01  1.777053e+01  7.706941e+00  # Hw water
     85      29    1  -1.112800  4.740675e+00  4.026891e+00  1.786143e+01  # Ow water
     86      29    2   0.556400  5.290938e+00  4.509736e+00  1.724474e+01  # Hw water
     87      29    2   0.556400  4.267998e+00  4.705455e+00  1.834346e+01  # Hw water
     88      30    1  -1.112800  2.345940e+01  1.149588e+01  1.410545e+01  # Ow water
     89      30    2   0.556400  2.296769e+01  1.195011e+01  1.478965e+01  # Hw water
     90      30    2   0.556400  2.394615e+01  1.218894e+01  1.365939e+01  # Hw water
     91      31    1  -1.112800  4.462894e+00  2.526134e+01  2.072244e+01  # Ow water
     92      31    2   0.556400  4.447691e+00  2.523945e+01  1.976561e+01  # Hw water
     93      31    2   0.556400  3.540198e+00  2.526623e+01  2.097707e+01  # Hw water
     94      32    1  -1.112800  1.407151e+01  1.839220e+01  1.753784e+01  # Ow water
     95      32    2   0.556400  1.404222e+01  1.749402e+01  1.786745e+01  # Hw water
     96      32    2   0.556400  1.336515e+01  1.843444e+01  1.689324e+01  # Hw water
     97      33    1  -1.112800  1.592995e+00  5.806356e+00  1.097761e+01  # Ow water
     98      33    2   0.556400  1.499981e+00  4.854120e+00  1.100630e+01  # Hw water
     99      33    2   0.556400  1.499927e+00  6.084149e+00  1.188887e+01  # Hw water
    100      34    1  -1.112800  2.521839e+01  1.047436e+01  9.887994e+00  # Ow water
    101      34    2   0.556400  2.519333e+01  1.142871e+01  9.818495e+00  # Hw water
    102      34    2   0.556400  2.526499e+01  1.016891e+01  8.982040e+00  # Hw water
    103      35    1  -1.112800  6.117711e+00  1.844021e+01  1.277340e+01  # Ow water
    104      35    2   0.556400  6.908540e+00  1.796072e+01  1.252659e+01  # Hw water
    105      35    2   0.556400  5.636605e+00  1.854811e+01  1.195296e+01  # Hw water
    106      36    1  -1.112800  2.032847e+01  6.459860e+00  8.981530e+00  # Ow water
    107      36    2   0.556400  2.041327e+01  5.741241e+00  8.354933e+00  # Hw water
    108      36    2   0.556400  2.056616e+01  7.241912e+00  8.483408e+00  # Hw water
    109      37    1  -1.112800  4.298971e+00  9.192786e+00  9.752232e+00  # Ow water
    110      37    2   0.556400  4.788173e+00  9.264216e+00  1.057187e+01  # Hw water
    111      37    2   0.556400  4.967631e+00  9.238874e+00  9.068859e+00  # Hw water
    112      38    1  -1.112800  1.111171e+01  2.023379e+01  1.029641e+01  # Ow water
    113      38    2   0.556400  1.197152e+01  1.989293e+01  1.054291e+01  # Hw water
    114      38    2   0.556400  1.068822e+01  1.950800e+01  9.838030e+00  # Hw water
    115      39    1  -1.112800  3.249213e+00  2.479021e+01  4.615874e+00  # Ow water
    116      39    2   0.556400  2.639055e+00  2.526581e+01  4.052190e+00  # Hw water
    117      39    2   0.556400  3.843203e+00  2.434929e+01  4.008422e+00  # Hw water
    118      40    1  -1.112800  1.524985e+00  7.896031e+00  2.465830e+01  # Ow water
    119      40    2   0.556400  1.521665e+00  8.657157e+00  2.523873e+01  # Hw water
    120      40    2   0.556400  1.501937e+00  7.143423e+00  2.524930e+01  # Hw water
    121      41    1  -1.112800  6.536147e+00  2.002936e+01  2.525596e+01  # Ow water
    122      41    2   0.556400  7.323814e+00  1.950082e+01  2.512770e+01  # Hw water
    123      41    2   0.556400  6.350714e+00  2.039731e+01  2.439198e+01  # Hw water
    124      42    1  -1.112800  1.521583e+00  4.476066e+00  2.526461e+01  # Ow water
    125      42    2   0.556400  1.538159e+00  4.801353e+00  2.436453e+01  # Hw water
    126      42    2   0.556400  1.499999e+00  3.523306e+00  2.517511e+01  # Hw water
    127      43    1  -1.112800  4.164229e+00  2.019861e+01  1.036787e+01  # Ow water
    128      43    2   0.556400  3.510270e+00  2.088144e+01  1.021855e+01  # Hw water
    129      43    2   0.556400  4.877923e+00  2.064527e+01  1.082323e+01  # Hw water
    130      44    1  -1.112800  2.083152e+01  2.280738e+01  2.083579e+00  # Ow water
    131      44    2   0.556400  2.070999e+01  2.355516e+01  1.498524e+00  # Hw water
    132      44    2   0.556400  2.095255e+01  2.206082e+01  1.496875e+00  # Hw water
    133      45    1  -1.112800  8.341045e+00  7.044024e+00  5.116808e+00  # Ow water
    134      45    2   0.556400  7.838179e+00  6.397704e+00  5.612413e+00  # Hw water
    135      45    2   0.556400  8.721076e+00  6.547840e+00  4.391821e+00  # Hw water
    136      46    1  -1.112800  1.810278e+01  3.306122e+00  1.024668e+01  # Ow water
    137      46    2   0.556400  1.753427e+01  3.551259e+00  1.097670e+01  # Hw water
    138      46    2   0.556400  1.868642e+01  4.056472e+00  1.013456e+01  # Hw water
    139      47    1  -1.112800  2.018768e+01  1.309032e+01  4.066460e+00  # Ow water
    140      47    2   0.556400  2.083301e+01  1.240515e+01  3.892325e+00  # Hw water
    141      47    2   0.556400  2.066470e+01  1.390915e+01  3.931559e+00  # Hw water
    142      48    1  -1.112800  2.492166e+01  7.389340e+00  1.839530e+01  # Ow water
    143      48    2   0.556400  2.526442e+01  7.741647e+00  1.921665e+01  # Hw water
    144      48    2   0.556400  2.469408e+01  6.482323e+00  1.859964e+01  # Hw water
    145      49    1  -1.112800  1.085245e+01  1.844467e+01  1.279223e+01  # Ow water
    146      49    2   0.556400  1.153083e+01  1.802325e+01  1.226455e+01  # Hw water
    147      49    2   0.556400  1.111557e+01  1.936416e+01  1.283150e+01  # Hw water
    148      50    1  -1.112800  3.976876e+00  1.499967e+00  2.467801e+01  # Ow water
    149      50    2   0.556400  4.732732e+00  1.499744e+00  2.526530e+01  # Hw water
    150      50    2   0.556400  3.218841e+00  1.504116e+00  2.526247e+01  # Hw water
    151      51    1  -1.112800  2.218002e+01  2.525144e+00  2.206220e+01  # Ow water
    152      51    2   0.556400  2.208459e+01  3.083350e+00  2.283390e+01  # Hw water
    153      51    2   0.556400  2.236119e+01  1.654627e+00  2.241661e+01  # Hw water
    154      52    1  -1.112800  1.756410e+01  2.476788e+01  5.416335e+00  # Ow water
    155      52    2   0.556400  1.752499e+01  2.473216e+01  4.460603e+00  # Hw water
    156      52    2   0.556400  1.835901e+01  2.526644e+01  5.605529e+00  # Hw water
    157      53    1  -1.112800  2.515259e+01  2.451670e+01  2.467844e+01  # Ow water
    158      53    2   0.556400  2.503992e+01  2.376778e+01  2.526381e+01  # Hw water
    159      53    2   0.556400  2.526448e+01  2.526493e+01  2.526484e+01  # Hw water
    160      54    1  -1.112800  1.830228e+01  2.153200e+01  7.821232e+00  # Ow water
    161      54    2   0.556400  1.753834e+01  2.193834e+01  7.411948e+00  # Hw water
    162      54    2   0.556400  1.832871e+01  2.064787e+01  7.455384e+00  # Hw water
    163      55    1  -1.112800  1.897660e+01  1.826413e+01  1.725393e+01  # Ow water
    164      55    2   0.556400  1.937389e+01  1.905773e+01  1.761253e+01  # Hw water
    165      55    2   0.556400  1.966064e+01  1.788006e+01  1.670547e+01  # Hw water
    166      56    1  -1.112800  1.509425e+00  3.811419e+00  1.691830e+01  # Ow water
    167      56    2   0.556400  2.425033e+00  3.561351e+00  1.704223e+01  # Hw water
    168      56    2   0.556400  1.513967e+00  4.767669e+00  1.696067e+01  # Hw water
    169      57    1  -1.112800  1.471702e+01  1.209339e+01  1.481267e+01  # Ow water
    170      57    2   0.556400  1.402722e+01  1.216430e+01  1.415284e+01  # Hw water
    171      57    2   0.556400  1.552776e+01  1.203588e+01  1.430707e+01  # Hw water
    172      58    1  -1.112800  1.778713e+01  1.198253e+01  1.197352e+01  # Ow water
    173      58    2   0.556400  1.833278e+01  1.125039e+01  1.168633e+01  # Hw water
    174      58    2   0.556400  1.756432e+01  1.177432e+01  1.288084e+01  # Hw water
    175      59    1  -1.112800  2.473647e+01  4.189126e+00  9.226815e+00  # Ow water
    176      59    2   0.556400  2.526557e+01  3.630027e+00  8.657879e+00  # Hw water
    177      59    2   0.556400  2.526540e+01  4.296064e+00  1.001740e+01  # Hw water
    178      60    1  -1.112800  1.499943e+00  1.780277e+00  1.495889e+01  # Ow water
    179      60    2   0.556400  1.951798e+00  1.499900e+00  1.416300e+01  # Hw water
    180      60    2   0.556400  2.073718e+00  1.500074e+00  1.567198e+01  # Hw water
    181      61    1  -1.112800  2.469541e+01  1.770740e+01  5.748059e+00  # Ow water
    182      61    2   0.556400  2.526554e+01  1.757300e+01  4.991013e+00  # Hw water
    183      61    2   0.556400  2.525476e+01  1.813435e+01  6.396949e+00  # Hw water
    184      62    1  -1.112800  7.244477e+00  1.546128e+01  3.757259e+00  # Ow water
    185      62    2   0.556400  7.233078e+00  1.472155e+01  4.364628e+00  # Hw water
    186      62    2   0.556400  7.252799e+00  1.623469e+01  4.321163e+00  # Hw water
    187      63    1  -1.112800  2.524507e+01  1.819405e+00  1.042826e+01  # Ow water
    188      63    2   0.556400  2.526452e+01  2.163076e+00  1.132142e+01  # Hw water
    189      63    2   0.556400  2.432124e+01  1.849675e+00  1.017953e+01  # Hw water
    190      64    1  -1.112800  1.510280e+01  2.143562e+01  1.956746e+01  # Ow water
    191      64    2   0.556400  1.600544e+01  2.111717e+01  1.957439e+01  # Hw water
    192      64    2   0.556400  1.510338e+01  2.217192e+01  2.017909e+01  # Hw water
    193      65    1  -1.112800  2.329130e+01  8.152264e+00  2.085761e+00  # Ow water
    194      65    2   0.556400  2.253008e+01  8.168101e+00  1.505653e+00  # Hw water
    195      65    2   0.556400  2.403806e+01  8.034447e+00  1.498645e+00  # Hw water
    196      66    1  -1.112800  1.449136e+01  2.439309e+01  2.182704e+01  # Ow water
    197      66    2   0.556400  1.379537e+01  2.379090e+01  2.156399e+01  # Hw water
    198      66    2   0.556400  1.416071e+01  2.525981e+01  2.159103e+01  # Hw water
    199      67    1  -1.112800  2.061406e+01  2.142182e+01  9.381600e+00  # Ow water
    200      67    2   0.556400  2.037759e+01  2.123639e+01  1.029041e+01  # Hw water
    201      67    2   0.556400  2.043784e+01  2.235644e+01  9.273675e+00  # Hw water
    202      68    1  -1.112800  4.722836e+00  1.530926e+00  1.800248e+01  # Ow water
    203      68    2   0.556400  3.889623e+00  1.499931e+00  1.753235e+01  # Hw water
    204      68    2   0.556400  5.387789e+00  1.499923e+00  1.731466e+01  # Hw water
    205      69    1  -1.112800  3.423801e+00  7.866899e+00  1.253996e+01  # Ow water
    206      69    2   0.556400  3.142730e+00  7.343662e+00  1.329059e+01  # Hw water
    207      69    2   0.556400  4.249784e+00  8.262189e+00  1.281875e+01  # Hw water
    208      70    1  -1.112800  1.809994e+01  1.312694e+01  5.625533e+00  # Ow water
    209      70    2   0.556400  1.769060e+01  1.307473e+01  6.489212e+00  # Hw water
    210      70    2   0.556400  1.842017e+01  1.402701e+01  5.565742e+00  # Hw water
    211      71    1  -1.112800  1.590624e+01  5.746796e+00  2.044719e+01  # Ow water
    212      71    2   0.556400  1.507759e+01  6.225614e+00  2.046474e+01  # Hw water
    213      71    2   0.556400  1.621203e+01  5.829353e+00  1.954392e+01  # Hw water
    214      72    1  -1.112800  2.065158e+01  2.471429e+01  7.090471e+00  # Ow water
    215      72    2   0.556400  2.077190e+01  2.515758e+01  6.250684e+00  # Hw water
    216      72    2   0.556400  2.111457e+01  2.526553e+01  7.721335e+00  # Hw water
    217      73    1  -1.112800  2.128191e+00  2.447295e+01  1.570898e+00  # Ow water
    218      73    2   0.556400  1.500514e+00  2.375377e+01  1.500000e+00  # Hw water
    219      73    2   0.556400  1.590589e+00  2.526440e+01  1.542184e+00  # Hw water
    220      74    1  -1.112800  1.485759e+01  1.671451e+01  1.109369e+01  # Ow water
    221      74    2   0.556400  1.542088e+01  1.734190e+01  1.064057e+01  # Hw water
    222      74    2   0.556400  1.420658e+01  1.725557e+01  1.154052e+01  # Hw water
    223      75    1  -1.112800  1.869400e+00  1.959314e+01  5.376150e+00  # Ow water
    224      75    2   0.556400  1.498090e+00  2.024191e+01  5.974022e+00  # Hw water
    225      75    2   0.556400  2.456113e+00  1.907080e+01  5.923109e+00  # Hw water
    226      76    1  -1.112800  1.790057e+01  1.740719e+01  5.312127e+00  # Ow water
    227      76    2   0.556400  1.733401e+01  1.769683e+01  4.597044e+00  # Hw water
    228      76    2   0.556400  1.793461e+01  1.645498e+01  5.220716e+00  # Hw water
    229      77    1  -1.112800  1.558635e+01  1.596762e+01  2.526474e+01  # Ow water
    230      77    2   0.556400  1.470417e+01  1.559624e+01  2.525641e+01  # Hw water
    231      77    2   0.556400  1.616707e+01  1.520670e+01  2.526484e+01  # Hw water
    232      78    1  -1.112800  6.118141e+00  4.262542e+00  7.820867e+00  # Ow water
    233      78    2   0.556400  5.192384e+00  4.349913e+00  8.047954e+00  # Hw water
    234      78    2   0.556400  6.347619e+00  5.101813e+00  7.421877e+00  # Hw water
    235      79    1  -1.112800  8.269309e+00  1.483501e+01  2.476359e+01  # Ow water
    236      79    2   0.556400  7.480272e+00  1.462852e+01  2.526461e+01  # Hw water
    237      79    2   0.556400  8.131092e+00  1.441538e+01  2.391446e+01  # Hw water
    238      80    1  -1.112800  9.396420e+00  2.147866e+01  2.059681e+01  # Ow water
    239      80    2   0.556400  9.542914e+00  2.188921e+01  2.144900e+01  # Hw water
    240      80    2   0.556400  1.002398e+01  2.075649e+01  2.056728e+01  # Hw water
    241      81    1  -1.112800  4.440476e+00  2.444314e+00  1.453764e+01  # Ow water
    242      81    2   0.556400  4.469939e+00  1.503667e+00  1.471241e+01  # Hw water
    243      81    2   0.556400  4.166004e+00  2.834141e+00  1.536766e+01  # Hw water
    244      82    1  -1.112800  2.271213e+01  1.546891e+01  1.888197e+01  # Ow water
    245      82    2   0.556400  2.285223e+01  1.574424e+01  1.797600e+01  # Hw water
    246      82    2   0.556400  2.338788e+01  1.480958e+01  1.903966e+01  # Hw water
    247      83    1  -1.112800  1.645451e+01  2.526553e+01  2.516213e+01  # Ow water
    248      83    2   0.556400  1.629810e+01  2.517537e+01  2.422211e+01  # Hw water
    249      83    2   0.556400  1.739418e+01  2.511474e+01  2.526462e+01  # Hw water
    250      84    1  -1.112800  4.100243e+00  5.523981e+00  2.266841e+01  # Ow water
    251      84    2   0.556400  3.958611e+00  6.097798e+00  2.191548e+01  # Hw water
    252      84    2   0.556400  4.625165e+00  4.801401e+00  2.232408e+01  # Hw water
    253      85    1  -1.112800  1.858271e+01  1.494432e+00  1.288926e+01  # Ow water
    254      85    2   0.556400  1.928130e+01  1.991605e+00  1.331471e+01  # Hw water
    255      85    2   0.556400  1.875097e+01  1.597484e+00  1.195262e+01  # Hw water
    256      86    1  -1.112800  5.511702e+00  6.871299e+00  1.055338e+01  # Ow water
    257      86    2   0.556400  5.672282e+00  6.699763e+00  1.148129e+01  # Hw water
    258      86    2   0.556400  5.911882e+00  6.129652e+00  1.009946e+01  # Hw water
    259      87    1  -1.112800  8.453401e+00  1.086314e+01  1.499899e+00  # Ow water
    260      87    2   0.556400  8.985957e+00  1.007007e+01  1.560340e+00  # Hw water
    261      87    2   0.556400  8.891295e+00  1.149068e+01  2.074947e+00  # Hw water
    262      88    1  -1.112800  2.227588e+01  1.658201e+01  1.252536e+01  # Ow water
    263      88    2   0.556400  2.143577e+01  1.675759e+01  1.210155e+01  # Hw water
    264      88    2   0.556400  2.291952e+01  1.665142e+01  1.182027e+01  # Hw water
    265      89    1  -1.112800  1.475024e+01  2.526879e+01  7.336271e+00  # Ow water
    266      89    2   0.556400  1.395830e+01  2.507050e+01  6.836532e+00  # Hw water
    267      89    2   0.556400  1.546110e+01  2.519215e+01  6.699850e+00  # Hw water
    268      90    1  -1.112800  2.213414e+01  1.300798e+01  1.721006e+01  # Ow water
    269      90    2   0.556400  2.161193e+01  1.346562e+01  1.786892e+01  # Hw water
    270      90    2   0.556400  2.284687e+01  1.260521e+01  1.770606e+01  # Hw water
    271      91    1  -1.112800  2.047325e+01  4.796717e+00  2.004725e+01  # Ow water
    272      91    2   0.556400  1.978063e+01  4.144181e+00  1.994381e+01  # Hw water
    273      91    2   0.556400  2.011657e+01  5.590530e+00  1.964866e+01  # Hw water
    274      92    1  -1.112800  2.253922e+01  3.706986e+00  1.716355e+01  # Ow water
    275      92    2   0.556400  2.273218e+01  3.114582e+00  1.789022e+01  # Hw water
    276      92    2   0.556400  2.208045e+01  4.442735e+00  1.756905e+01  # Hw water
    277      93    1  -1.112800  1.089739e+01  1.983544e+00  1.315663e+01  # Ow water
    278      93    2   0.556400  1.134994e+01  1.499791e+00  1.246569e+01  # Hw water
    279      93    2   0.556400  1.109642e+01  1.499716e+00  1.395821e+01  # Hw water
    280      94    1  -1.112800  5.154880e+00  2.445125e+01  1.750098e+01  # Ow water
    281      94    2   0.556400  5.826599e+00  2.441697e+01  1.681992e+01  # Hw water
    282      94    2   0.556400  4.333697e+00  2.456547e+01  1.702261e+01  # Hw water
    283      95    1  -1.112800  1.499868e+00  1.055322e+01  2.173059e+01  # Ow water
    284      95    2   0.556400  1.500000e+00  1.131016e+01  2.231648e+01  # Hw water
    285      95    2   0.556400  1.500028e+00  9.796265e+00  2.231646e+01  # Hw water
    286      96    1  -1.112800  4.136894e+00  1.017392e+01  5.950755e+00  # Ow water
    287      96    2   0.556400  4.789164e+00  1.083551e+01  5.720385e+00  # Hw water
    288      96    2   0.556400  4.028573e+00  9.655789e+00  5.153235e+00  # Hw water
    289      97    1  -1.112800  2.512188e+01  6.924965e+00  1.001764e+01  # Ow water
    290      97    2   0.556400  2.527000e+01  6.629205e+00  9.119410e+00  # Hw water
    291      97    2   0.556400  2.502370e+01  7.874310e+00  9.944603e+00  # Hw water
    292      98    1  -1.112800  1.481081e+01  8.525809e+00  1.026093e+01  # Ow water
    293      98    2   0.556400  1.421734e+01  8.565822e+00  1.101088e+01  # Hw water
    294      98    2   0.556400  1.567778e+01  8.402099e+00  1.064730e+01  # Hw water
    295      99    1  -1.112800  1.654293e+01  3.141678e+00  1.323819e+01  # Ow water
    296      99    2   0.556400  1.582496e+01  3.727720e+00  1.347757e+01  # Hw water
    297      99    2   0.556400  1.728491e+01  3.445014e+00  1.376135e+01  # Hw water
    298     100    1  -1.112800  1.067955e+01  2.527109e+01  4.202948e+00  # Ow water
    299     100    2   0.556400  1.041931e+01  2.518383e+01  5.119948e+00  # Hw water
    300     100    2   0.556400  1.159610e+01  2.499561e+01  4.186334e+00  # Hw water
    301     101    1  -1.112800  3.215905e+00  1.749950e+01  2.049403e+01  # Ow water
    302     101    2   0.556400  3.662542e+00  1.830152e+01  2.076514e+01  # Hw water
    303     101    2   0.556400  2.458086e+00  1.780388e+01  1.999473e+01  # Hw water
    304     102    1  -1.112800  1.161474e+01  1.684624e+00  7.819645e+00  # Ow water
    305     102    2   0.556400  1.106612e+01  1.500226e+00  7.057256e+00  # Hw water
    306     102    2   0.556400  1.250093e+01  1.758316e+00  7.465424e+00  # Hw water
    307     103    1  -1.112800  1.255869e+01  2.450375e+01  1.668011e+01  # Ow water
    308     103    2   0.556400  1.265552e+01  2.386616e+01  1.597277e+01  # Hw water
    309     103    2   0.556400  1.305981e+01  2.526493e+01  1.638736e+01  # Hw water
    310     104    1  -1.112800  2.043840e+01  1.637114e+01  2.255588e+01  # Ow water
    311     104    2   0.556400  2.009282e+01  1.627364e+01  2.166858e+01  # Hw water
    312     104    2   0.556400  2.003009e+01  1.717153e+01  2.288585e+01  # Hw water
    313     105    1  -1.112800  9.019194e+00  1.523075e+00  2.453930e+01  # Ow water
    314     105    2   0.556400  9.778251e+00  1.553451e+00  2.512165e+01  # Hw water
    315     105    2   0.556400  8.265330e+00  1.499450e+00  2.512867e+01  # Hw water
    316     106    1  -1.112800  1.751596e+01  1.834088e+01  9.083132e+00  # Ow water
    317     106    2   0.556400  1.814771e+01  1.832728e+01  8.364157e+00  # Hw water
    318     106    2   0.556400  1.803116e+01  1.858931e+01  9.850644e+00  # Hw water
    319     107    1  -1.112800  1.499410e+00  1.628713e+01  8.832904e+00  # Ow water
    320     107    2   0.556400  1.722094e+00  1.600341e+01  9.719552e+00  # Hw water
    321     107    2   0.556400  1.581576e+00  1.724046e+01  8.858239e+00  # Hw water
    322     108    1  -1.112800  9.936587e+00  4.862798e+00  1.771567e+01  # Ow water
    323     108    2   0.556400  1.082020e+01  5.219346e+00  1.762442e+01  # Hw water
    324     108    2   0.556400  9.539403e+00  4.982047e+00  1.685297e+01  # Hw water
    325     109    1  -1.112800  7.025730e+00  2.411359e+01  1.926499e+01  # Ow water
    326     109    2   0.556400  7.509520e+00  2.372705e+01  1.853508e+01  # Hw water
    327     109    2   0.556400  7.180974e+00  2.505465e+01  1.918426e+01  # Hw water
    328     110    1  -1.112800  5.498770e+00  1.566798e+01  1.803258e+01  # Ow water
    329     110    2   0.556400  5.151451e+00  1.581008e+01  1.715201e+01  # Hw water
    330     110    2   0.556400  5.642672e+00  1.654869e+01  1.837881e+01  # Hw water
    331     111    1  -1.112800  1.700417e+01  1.111717e+01  2.525979e+01  # Ow water
    332     111    2   0.556400  1.713180e+01  1.202837e+01  2.499586e+01  # Hw water
    333     111    2   0.556400  1.788520e+01  1.074301e+01  2.526446e+01  # Hw water
    334     112    1  -1.112800  1.405094e+01  5.587119e+00  7.891926e+00  # Ow water
    335     112    2   0.556400  1.431157e+01  5.731342e+00  8.801596e+00  # Hw water
    336     112    2   0.556400  1.314838e+01  5.902832e+00  7.847938e+00  # Hw water
    337     113    1  -1.112800  6.480125e+00  1.920378e+00  2.091632e+01  # Ow water
    338     113    2   0.556400  7.332096e+00  1.499676e+00  2.103200e+01  # Hw water
    339     113    2   0.556400  6.107766e+00  1.499297e+00  2.014155e+01  # Hw water
    340     114    1  -1.112800  2.204025e+01  1.949835e+01  1.263593e+01  # Ow water
    341     114    2   0.556400  2.178954e+01  1.899914e+01  1.341321e+01  # Hw water
    342     114    2   0.556400  2.285811e+01  1.909494e+01  1.234509e+01  # Hw water
    343     115    1  -1.112800  2.244159e+01  8.213814e+00  2.103024e+01  # Ow water
    344     115    2   0.556400  2.336796e+01  8.176502e+00  2.079218e+01  # Hw water
    345     115    2   0.556400  2.213144e+01  7.313890e+00  2.092937e+01  # Hw water
    346     116    1  -1.112800  2.005276e+01  8.501349e+00  1.151618e+01  # Ow water