created by fftool

13480 atoms
8880 bonds
4440 angles
4 atom types
1 bond types
1 angle types
0.000000 51.786687 xlo xhi
0.000000 51.786687 ylo yhi
0.000000 51.786687 zlo zhi
Atoms

      1       1    1  -1.112800  4.974293e+01  4.825977e+01  2.743560e+01  # Ow water
      2       1    2   0.556400  5.028671e+01  4.888726e+01  2.791183e+01  # Hw water
      3       1    2   0.556400  5.017589e+01  4.741669e+01  2.756971e+01  # Hw water
      4       2    1  -1.112800  2.938258e+01  2.181616e+01  5.711374e+00  # Ow water
      5       2    2   0.556400  2.873006e+01  2.202576e+01  5.043159e+00  # Hw water
      6       2    2   0.556400  3.022294e+01  2.190008e+01  5.260845e+00  # Hw water
      7       3    1  -1.112800  4.354787e+01  3.400644e+01  2.110287e+01  # Ow water
      8       3    2   0.556400  4.297005e+01  3.343449e+01  2.059768e+01  # Hw water
      9       3    2   0.556400  4.360113e+01  3.359314e+01  2.196460e+01  # Hw water
     10       4    1  -1.112800  3.931313e+01  3.854204e+01  1.955527e+01  # Ow water
     11       4    2   0.556400  3.979141e+01  3.804379e+01  2.021801e+01  # Hw water
     12       4    2   0.556400  3.871484e+01  3.790640e+01  1.916254e+01  # Hw water
     13       5    1  -1.112800  2.429957e+01  2.976061e+01  4.165110e+01  # Ow water
     14       5    2   0.556400  2.410269e+01  2.933319e+01  4.081757e+01  # Hw water
     15       5    2   0.556400  2.509492e+01  3.026502e+01  4.148018e+01  # Hw water
     16       6    1  -1.112800  3.731835e+01  5.178148e+00  9.037219e+00  # Ow water
     17       6    2   0.556400  3.642198e+01  5.419488e+00  8.803748e+00  # Hw water
     18       6    2   0.556400  3.762480e+01  4.650824e+00  8.299489e+00  # Hw water
     19       7    1  -1.112800  7.085040e+00  4.353440e+01  3.100261e+01  # Ow water
     20       7    2   0.556400  6.173365e+00  4.327122e+01  3.112835e+01  # Hw water
     21       7    2   0.556400  7.211588e+00  4.351565e+01  3.005400e+01  # Hw water
     22       8    1  -1.112800  3.054649e+01  2.931769e+01  2.743307e+01  # Ow water
     23       8    2   0.556400  2.972709e+01  2.970466e+01  2.712475e+01  # Hw water
     24       8    2   0.556400  3.075776e+01  2.865084e+01  2.677969e+01  # Hw water
     25       9    1  -1.112800  1.972971e+01  1.642495e+00  7.114964e+00  # Ow water
     26       9    2   0.556400  1.917480e+01  1.499997e+00  7.881770e+00  # Hw water
     27       9    2   0.556400  2.062212e+01  1.518434e+00  7.438141e+00  # Hw water
     28      10    1  -1.112800  3.562968e+01  2.146860e+01  2.301162e+00  # Ow water
     29      10    2   0.556400  3.613666e+01  2.133647e+01  1.500077e+00  # Hw water
     30      10    2   0.556400  3.473244e+01  2.160614e+01  1.997398e+00  # Hw water
     31      11    1  -1.112800  2.330876e+01  2.132951e+01  1.242315e+01  # Ow water
     32      11    2   0.556400  2.422157e+01  2.143592e+01  1.215540e+01  # Hw water
     33      11    2   0.556400  2.334872e+01  2.121790e+01  1.337298e+01  # Hw water
     34      12    1  -1.112800  2.151885e+01  7.380729e+00  1.223880e+01  # Ow water
     35      12    2   0.556400  2.129745e+01  7.213612e+00  1.315492e+01  # Hw water
     36      12    2   0.556400  2.244209e+01  7.138446e+00  1.216698e+01  # Hw water
     37      13    1  -1.112800  1.508807e+00  4.045602e+01  2.364192e+01  # Ow water
     38      13    2   0.556400  1.740429e+00  3.955074e+01  2.343446e+01  # Hw water
     39      13    2   0.556400  1.499739e+00  4.090159e+01  2.279479e+01  # Hw water
     40      14    1  -1.112800  3.700799e+00  4.282695e+01  4.483924e+01  # Ow water
     41      14    2   0.556400  4.549315e+00  4.238437e+01  4.482008e+01  # Hw water
     42      14    2   0.556400  3.914516e+00  4.375821e+01  4.478174e+01  # Hw water
     43      15    1  -1.112800  1.946469e+01  2.513145e+01  1.463068e+01  # Ow water
     44      15    2   0.556400  1.901374e+01  2.577030e+01  1.518271e+01  # Hw water
     45      15    2   0.556400  2.037092e+01  2.543812e+01  1.459995e+01  # Hw water
     46      16    1  -1.112800  2.103065e+01  2.115318e+01  2.760990e+01  # Ow water
     47      16    2   0.556400  2.078488e+01  2.056075e+01  2.832042e+01  # Hw water
     48      16    2   0.556400  2.101848e+01  2.202354e+01  2.800808e+01  # Hw water
     49      17    1  -1.112800  9.659798e+00  3.647119e+01  4.833041e+01  # Ow water
     50      17    2   0.556400  8.762045e+00  3.616971e+01  4.846961e+01  # Hw water
     51      17    2   0.556400  9.945746e+00  3.677880e+01  4.919055e+01  # Hw water
     52      18    1  -1.112800  1.902114e+01  4.984530e+01  9.971940e+00  # Ow water
     53      18    2   0.556400  1.824433e+01  5.028693e+01  1.031512e+01  # Hw water
     54      18    2   0.556400  1.975597e+01  5.028672e+01  1.039784e+01  # Hw water
     55      19    1  -1.112800  1.937567e+00  3.990682e+01  8.369341e+00  # Ow water
     56      19    2   0.556400  2.746067e+00  4.028966e+01  8.709916e+00  # Hw water
     57      19    2   0.556400  1.660695e+00  4.050723e+01  7.677191e+00  # Hw water
     58      20    1  -1.112800  3.929048e+01  1.618856e+01  2.712794e+01  # Ow water
     59      20    2   0.556400  3.987077e+01  1.656756e+01  2.646775e+01  # Hw water
     60      20    2   0.556400  3.858774e+01  1.577917e+01  2.662318e+01  # Hw water
     61      21    1  -1.112800  4.197573e+01  1.358106e+01  2.365139e+01  # Ow water
     62      21    2   0.556400  4.133030e+01  1.315344e+01  2.421424e+01  # Hw water
     63      21    2   0.556400  4.164125e+01  1.345444e+01  2.276351e+01  # Hw water
     64      22    1  -1.112800  3.221220e+01  1.654121e+00  8.375253e+00  # Ow water
     65      22    2   0.556400  3.236357e+01  2.490430e+00  7.934910e+00  # Hw water
     66      22    2   0.556400  3.127219e+01  1.500001e+00  8.281089e+00  # Hw water
     67      23    1  -1.112800  1.383788e+01  3.932718e+01  1.871371e+01  # Ow water
     68      23    2   0.556400  1.413700e+01  3.847352e+01  1.840060e+01  # Hw water
     69      23    2   0.556400  1.368240e+01  3.983409e+01  1.791678e+01  # Hw water
     70      24    1  -1.112800  3.234384e+01  4.161296e+01  3.666382e+01  # Ow water
     71      24    2   0.556400  3.272388e+01  4.242817e+01  3.633638e+01  # Hw water
     72      24    2   0.556400  3.284844e+01  4.092294e+01  3.623313e+01  # Hw water
     73      25    1  -1.112800  8.168577e+00  1.231739e+01  3.330298e+01  # Ow water
     74      25    2   0.556400  8.546030e+00  1.318859e+01  3.342445e+01  # Hw water
     75      25    2   0.556400  8.722818e+00  1.174033e+01  3.382838e+01  # Hw water
     76      26    1  -1.112800  3.548783e+01  3.945173e+00  2.832538e+01  # Ow water
     77      26    2   0.556400  3.541732e+01  3.448608e+00  2.751010e+01  # Hw water
     78      26    2   0.556400  3.641129e+01  4.191709e+00  2.837712e+01  # Hw water
     79      27    1  -1.112800  3.042910e+01  5.004030e+01  2.658939e+01  # Ow water
     80      27    2   0.556400  2.963381e+01  5.028670e+01  2.706165e+01  # Hw water
     81      27    2   0.556400  3.025252e+01  5.028107e+01  2.567996e+01  # Hw water
     82      28    1  -1.112800  1.252968e+01  3.105164e+01  2.766107e+01  # Ow water
     83      28    2   0.556400  1.295661e+01  3.135881e+01  2.686131e+01  # Hw water
     84      28    2   0.556400  1.320475e+01  3.054710e+01  2.811489e+01  # Hw water
     85      29    1  -1.112800  3.835820e+01  4.310797e+01  5.020712e+01  # Ow water
     86      29    2   0.556400  3.929001e+01  4.331201e+01  5.028670e+01  # Hw water
     87      29    2   0.556400  3.818571e+01  4.313689e+01  4.926604e+01  # Hw water
     88      30    1  -1.112800  1.132436e+01  2.518026e+01  3.249961e+01  # Ow water
     89      30    2   0.556400  1.175177e+01  2.435634e+01  3.273353e+01  # Hw water
     90      30    2   0.556400  1.088327e+01  2.545817e+01  3.330238e+01  # Hw water
     91      31    1  -1.112800  7.665259e+00  2.706521e+01  4.791270e+01  # Ow water
     92      31    2   0.556400  8.322713e+00  2.639920e+01  4.771167e+01  # Hw water
     93      31    2   0.556400  6.827040e+00  2.661868e+01  4.779342e+01  # Hw water
     94      32    1  -1.112800  2.997225e+01  4.227566e+01  4.154650e+00  # Ow water
     95      32    2   0.556400  3.072376e+01  4.278634e+01  3.853546e+00  # Hw water
     96      32    2   0.556400  2.943360e+01  4.215723e+01  3.372311e+00  # Hw water
     97      33    1  -1.112800  4.384661e+01  2.183489e+01  1.154273e+01  # Ow water
     98      33    2   0.556400  4.439885e+01  2.142900e+01  1.087452e+01  # Hw water
     99      33    2   0.556400  4.339164e+01  2.253998e+01  1.108222e+01  # Hw water
    100      34    1  -1.112800  1.777659e+01  2.856456e+01  3.925285e+01  # Ow water
    101      34    2   0.556400  1.837041e+01  2.904295e+01  3.983143e+01  # Hw water
    102      34    2   0.556400  1.716535e+01  2.812669e+01  3.984520e+01  # Hw water
    103      35    1  -1.112800  3.350430e+01  2.433131e+01  5.982974e+00  # Ow water
    104      35    2   0.556400  3.364951e+01  2.458625e+01  6.894100e+00  # Hw water
    105      35    2   0.556400  3.307838e+01  2.509114e+01  5.586130e+00  # Hw water
    106      36    1  -1.112800  3.908459e+01  1.676663e+01  1.476831e+01  # Ow water
    107      36    2   0.556400  3.980006e+01  1.685521e+01  1.539798e+01  # Hw water
    108      36    2   0.556400  3.829174e+01  1.676488e+01  1.530461e+01  # Hw water
    109      37    1  -1.112800  4.029977e+00  2.935821e+01  4.948136e+01  # Ow water
    110      37    2   0.556400  3.922180e+00  2.986394e+01  5.028687e+01  # Hw water
    111      37    2   0.556400  3.815118e+00  2.997405e+01  4.878078e+01  # Hw water
    112      38    1  -1.112800  1.507259e+00  4.445729e+01  1.564965e+01  # Ow water
    113      38    2   0.556400  1.814135e+00  4.512070e+01  1.626767e+01  # Hw water
    114      38    2   0.556400  1.532524e+00  4.489297e+01  1.479773e+01  # Hw water
    115      39    1  -1.112800  1.215197e+01  2.157480e+00  4.068238e+01  # Ow water
    116      39    2   0.556400  1.200596e+01  2.996209e+00  4.111992e+01  # Hw water
    117      39    2   0.556400  1.180301e+01  1.505685e+00  4.129034e+01  # Hw water
    118      40    1  -1.112800  4.118113e+01  4.879042e+00  2.599561e+01  # Ow water
    119      40    2   0.556400  4.094422e+01  3.987169e+00  2.624990e+01  # Hw water
    120      40    2   0.556400  4.209374e+01  4.813972e+00  2.571427e+01  # Hw water
    121      41    1  -1.112800  1.973783e+00  3.531414e+01  9.533481e+00  # Ow water
    122      41    2   0.556400  1.552618e+00  3.557573e+01  8.714689e+00  # Hw water
    123      41    2   0.556400  1.499737e+00  3.452883e+01  9.806984e+00  # Hw water
    124      42    1  -1.112800  1.855495e+01  6.154093e+00  2.279458e+01  # Ow water
    125      42    2   0.556400  1.934250e+01  5.841774e+00  2.324006e+01  # Hw water
    126      42    2   0.556400  1.876258e+01  6.084102e+00  2.186280e+01  # Hw water
    127      43    1  -1.112800  4.893063e+01  4.141657e+00  4.057775e+01  # Ow water
    128      43    2   0.556400  4.986275e+01  4.134646e+00  4.036019e+01  # Hw water
    129      43    2   0.556400  4.869891e+01  5.069792e+00  4.061095e+01  # Hw water
    130      44    1  -1.112800  5.000034e+01  2.763407e+01  1.203139e+01  # Ow water
    131      44    2   0.556400  5.028629e+01  2.759700e+01  1.111866e+01  # Hw water
    132      44    2   0.556400  5.028607e+01  2.849476e+01  1.233764e+01  # Hw water
    133      45    1  -1.112800  4.505518e+01  3.913297e+00  4.174528e+01  # Ow water
    134      45    2   0.556400  4.525330e+01  3.691010e+00  4.083558e+01  # Hw water
    135      45    2   0.556400  4.418292e+01  3.549372e+00  4.189676e+01  # Hw water
    136      46    1  -1.112800  9.197010e+00  2.127318e+01  4.097383e+01  # Ow water
    137      46    2   0.556400  9.733573e+00  2.084191e+01  4.030875e+01  # Hw water
    138      46    2   0.556400  8.610286e+00  2.184291e+01  4.047643e+01  # Hw water
    139      47    1  -1.112800  5.028487e+01  3.001550e+01  1.499998e+00  # Ow water
    140      47    2   0.556400  5.028669e+01  3.085842e+01  1.953551e+00  # Hw water
    141      47    2   0.556400  5.027867e+01  2.936511e+01  2.202271e+00  # Hw water
    142      48    1  -1.112800  8.329047e+00  2.659592e+01  3.737300e+01  # Ow water
    143      48    2   0.556400  8.535969e+00  2.723373e+01  3.805609e+01  # Hw water
    144      48    2   0.556400  9.106916e+00  2.604068e+01  3.731950e+01  # Hw water
    145      49    1  -1.112800  4.981787e+01  4.594031e+01  3.113724e+01  # Ow water
    146      49    2   0.556400  4.938462e+01  4.654968e+01  3.173489e+01  # Hw water
    147      49    2   0.556400  5.028671e+01  4.533414e+01  3.171080e+01  # Hw water
    148      50    1  -1.112800  2.731105e+01  3.451649e+01  3.109056e+01  # Ow water
    149      50    2   0.556400  2.745729e+01  3.389472e+01  3.180348e+01  # Hw water
    150      50    2   0.556400  2.760992e+01  3.535625e+01  3.143942e+01  # Hw water
    151      51    1  -1.112800  3.221802e+00  1.774074e+01  3.840240e+01  # Ow water
    152      51    2   0.556400  3.786890e+00  1.794925e+01  3.765847e+01  # Hw water
    153      51    2   0.556400  3.017373e+00  1.681176e+01  3.829552e+01  # Hw water
    154      52    1  -1.112800  2.864111e+01  2.328632e+01  2.080371e+01  # Ow water
    155      52    2   0.556400  2.920434e+01  2.280316e+01  2.019910e+01  # Hw water
    156      52    2   0.556400  2.800233e+01  2.372261e+01  2.023995e+01  # Hw water
    157      53    1  -1.112800  4.160670e+01  4.129248e+01  2.265732e+01  # Ow water
    158      53    2   0.556400  4.245177e+01  4.113303e+01  2.223700e+01  # Hw water
    159      53    2   0.556400  4.096155e+01  4.096236e+01  2.203200e+01  # Hw water
    160      54    1  -1.112800  8.921785e+00  1.599418e+01  3.364827e+01  # Ow water
    161      54    2   0.556400  9.599706e+00  1.657895e+01  3.398695e+01  # Hw water
    162      54    2   0.556400  8.310307e+00  1.657353e+01  3.319365e+01  # Hw water
    163      55    1  -1.112800  3.023645e+01  9.685737e+00  1.746171e+01  # Ow water
    164      55    2   0.556400  3.110053e+01  9.781193e+00  1.786232e+01  # Hw water
    165      55    2   0.556400  3.017189e+01  1.042107e+01  1.685232e+01  # Hw water
    166      56    1  -1.112800  3.060310e+01  4.676862e+01  7.533767e+00  # Ow water
    167      56    2   0.556400  3.005542e+01  4.745683e+01  7.911444e+00  # Hw water
    168      56    2   0.556400  3.085809e+01  4.622762e+01  8.281117e+00  # Hw water
    169      57    1  -1.112800  7.385139e+00  3.276053e+01  1.466969e+01  # Ow water
    170      57    2   0.556400  8.097486e+00  3.235392e+01  1.417627e+01  # Hw water
    171      57    2   0.556400  7.814399e+00  3.342790e+01  1.520502e+01  # Hw water
    172      58    1  -1.112800  2.617996e+01  4.011226e+00  4.148989e+01  # Ow water
    173      58    2   0.556400  2.706524e+01  3.801861e+00  4.178770e+01  # Hw water
    174      58    2   0.556400  2.576223e+01  3.159602e+00  4.136160e+01  # Hw water
    175      59    1  -1.112800  4.818798e+01  2.036692e+01  3.100215e+00  # Ow water
    176      59    2   0.556400  4.769715e+01  2.034450e+01  3.921686e+00  # Hw water
    177      59    2   0.556400  4.786169e+01  2.114423e+01  2.646835e+00  # Hw water
    178      60    1  -1.112800  6.538868e+00  4.624501e+01  2.708076e+01  # Ow water
    179      60    2   0.556400  5.926870e+00  4.593661e+01  2.774902e+01  # Hw water
    180      60    2   0.556400  7.404795e+00  4.607382e+01  2.745102e+01  # Hw water
    181      61    1  -1.112800  5.429206e+00  3.617320e+01  4.821165e+01  # Ow water
    182      61    2   0.556400  4.882862e+00  3.576270e+01  4.754141e+01  # Hw water
    183      61    2   0.556400  6.154541e+00  3.656355e+01  4.772406e+01  # Hw water
    184      62    1  -1.112800  1.524883e+00  3.392246e+01  1.499761e+00  # Ow water
    185      62    2   0.556400  1.500015e+00  3.300317e+01  1.765290e+00  # Hw water
    186      62    2   0.556400  1.508188e+00  3.441058e+01  2.322983e+00  # Hw water
    187      63    1  -1.112800  5.020452e+01  3.829139e+01  5.023928e+01  # Ow water
    188      63    2   0.556400  5.028670e+01  3.733891e+01  5.028670e+01  # Hw water
    189      63    2   0.556400  5.011955e+01  3.847870e+01  4.930444e+01  # Hw water
    190      64    1  -1.112800  1.491825e+01  1.232252e+01  4.162680e+01  # Ow water
    191      64    2   0.556400  1.480104e+01  1.171223e+01  4.089876e+01  # Hw water
    192      64    2   0.556400  1.544943e+01  1.303086e+01  4.126304e+01  # Hw water
    193      65    1  -1.112800  4.040085e+01  3.590284e+01  2.109645e+00  # Ow water
    194      65    2   0.556400  4.095465e+01  3.535459e+01  1.553800e+00  # Hw water
    195      65    2   0.556400  3.995977e+01  3.649442e+01  1.499968e+00  # Hw water
    196      66    1  -1.112800  3.336642e+01  2.038447e+00  4.492314e+01  # Ow water
    197      66    2   0.556400  3.381506e+01  1.500017e+00  4.557509e+01  # Hw water
    198      66    2   0.556400  3.263007e+01  1.500124e+00  4.463292e+01  # Hw water
    199      67    1  -1.112800  2.169713e+01  4.973377e+01  3.751749e+01  # Ow water
    200      67    2   0.556400  2.166131e+01  5.028671e+01  3.829801e+01  # Hw water
    201      67    2   0.556400  2.133750e+01  5.028078e+01  3.681916e+01  # Hw water
    202      68    1  -1.112800  1.118101e+01  3.812667e+01  6.206008e+00  # Ow water
    203      68    2   0.556400  1.144529e+01  3.887665e+01  6.738845e+00  # Hw water
    204      68    2   0.556400  1.119552e+01  3.738525e+01  6.811251e+00  # Hw water
    205      69    1  -1.112800  4.699724e+01  8.299944e+00  3.299820e+01  # Ow water
    206      69    2   0.556400  4.660543e+01  9.171973e+00  3.295049e+01  # Hw water
    207      69    2   0.556400  4.789940e+01  8.425779e+00  3.270408e+01  # Hw water
    208      70    1  -1.112800  3.690641e+01  1.851042e+01  4.150479e+01  # Ow water
    209      70    2   0.556400  3.746159e+01  1.821554e+01  4.222662e+01  # Hw water
    210      70    2   0.556400  3.608854e+01  1.877711e+01  4.192455e+01  # Hw water
    211      71    1  -1.112800  4.292785e+01  6.202171e+00  4.709217e+01  # Ow water
    212      71    2   0.556400  4.259115e+01  7.067702e+00  4.686041e+01  # Hw water
    213      71    2   0.556400  4.231780e+01  5.589473e+00  4.668148e+01  # Hw water
    214      72    1  -1.112800  1.596636e+01  5.028672e+01  3.550007e+01  # Ow water
    215      72    2   0.556400  1.683004e+01  4.992961e+01  3.529330e+01  # Hw water
    216      72    2   0.556400  1.583427e+01  5.007539e+01  3.642426e+01  # Hw water
    217      73    1  -1.112800  3.850353e+01  4.924113e+01  2.553120e+01  # Ow water
    218      73    2   0.556400  3.859281e+01  4.880587e+01  2.637903e+01  # Hw water
    219      73    2   0.556400  3.872179e+01  5.015636e+01  2.570714e+01  # Hw water
    220      74    1  -1.112800  1.109024e+01  2.452986e+00  2.304809e+01  # Ow water
    221      74    2   0.556400  1.187318e+01  2.722293e+00  2.256777e+01  # Hw water
    222      74    2   0.556400  1.126746e+01  1.549070e+00  2.330840e+01  # Hw water
    223      75    1  -1.112800  4.092196e+00  1.554487e+00  2.205760e+01  # Ow water
    224      75    2   0.556400  4.669780e+00  1.500000e+00  2.281895e+01  # Hw water
    225      75    2   0.556400  3.544635e+00  2.321296e+00  2.222615e+01  # Hw water
    226      76    1  -1.112800  4.340027e+00  5.666003e+00  1.109132e+01  # Ow water
    227      76    2   0.556400  3.858477e+00  6.444141e+00  1.081053e+01  # Hw water
    228      76    2   0.556400  4.065166e+00  5.527756e+00  1.199772e+01  # Hw water
    229      77    1  -1.112800  4.986943e+01  4.270227e+01  1.638494e+00  # Ow water
    230      77    2   0.556400  5.027793e+01  4.195538e+01  2.076123e+00  # Hw water
    231      77    2   0.556400  4.896089e+01  4.243332e+01  1.502628e+00  # Hw water
    232      78    1  -1.112800  1.531600e+01  8.009668e+00  4.325977e+01  # Ow water
    233      78    2   0.556400  1.448468e+01  7.535354e+00  4.327258e+01  # Hw water
    234      78    2   0.556400  1.582053e+01  7.590882e+00  4.256242e+01  # Hw water
    235      79    1  -1.112800  1.254789e+01  4.248933e+01  2.932627e+01  # Ow water
    236      79    2   0.556400  1.324164e+01  4.199441e+01  2.976214e+01  # Hw water
    237      79    2   0.556400  1.300137e+01  4.299550e+01  2.865219e+01  # Hw water
    238      80    1  -1.112800  3.109251e+01  1.086731e+01  7.751705e+00  # Ow water
    239      80    2   0.556400  3.122864e+01  1.108273e+01  6.829049e+00  # Hw water
    240      80    2   0.556400  3.014325e+01  1.090390e+01  7.869176e+00  # Hw water
    241      81    1  -1.112800  3.720498e+00  3.474415e+01  3.530107e+01  # Ow water
    242      81    2   0.556400  4.478031e+00  3.445894e+01  3.479016e+01  # Hw water
    243      81    2   0.556400  3.212551e+00  3.528452e+01  3.469591e+01  # Hw water
    244      82    1  -1.112800  2.725387e+01  1.529301e+01  1.846864e+01  # Ow water
    245      82    2   0.556400  2.690163e+01  1.478325e+01  1.919823e+01  # Hw water
    246      82    2   0.556400  2.766873e+01  1.604971e+01  1.888279e+01  # Hw water
    247      83    1  -1.112800  9.578255e+00  3.080704e+01  2.991049e+01  # Ow water
    248      83    2   0.556400  9.055065e+00  3.085124e+01  2.911014e+01  # Hw water
    249      83    2   0.556400  1.006099e+01  3.163342e+01  2.992759e+01  # Hw water
    250      84    1  -1.112800  1.499352e+00  8.864433e+00  3.592022e+01  # Ow water
    251      84    2   0.556400  1.725253e+00  8.050636e+00  3.637070e+01  # Hw water
    252      84    2   0.556400  1.499000e+00  9.528319e+00  3.660977e+01  # Hw water
    253      85    1  -1.112800  3.380618e+00  3.733532e+01  9.102890e+00  # Ow water
    254      85    2   0.556400  3.822542e+00  3.803504e+01  8.621943e+00  # Hw water
    255      85    2   0.556400  2.583996e+00  3.774335e+01  9.442195e+00  # Hw water
    256      86    1  -1.112800  4.543467e+01  3.605037e+01  2.311610e+01  # Ow water
    257      86    2   0.556400  4.476343e+01  3.573921e+01  2.250878e+01  # Hw water
    258      86    2   0.556400  4.614639e+01  3.635354e+01  2.255239e+01  # Hw water
    259      87    1  -1.112800  1.082412e+01  3.800412e+01  3.842449e+01  # Ow water
    260      87    2   0.556400  1.015453e+01  3.837091e+01  3.784713e+01  # Hw water
    261      87    2   0.556400  1.150732e+01  3.769150e+01  3.783143e+01  # Hw water
    262      88    1  -1.112800  2.930659e+01  2.132534e+01  2.447217e+01  # Ow water
    263      88    2   0.556400  2.981106e+01  2.199105e+01  2.400465e+01  # Hw water
    264      88    2   0.556400  2.874173e+01  2.182330e+01  2.506309e+01  # Hw water
    265      89    1  -1.112800  8.298371e+00  4.291465e+01  4.868514e+01  # Ow water
    266      89    2   0.556400  7.606801e+00  4.327519e+01  4.924009e+01  # Hw water
    267      89    2   0.556400  7.994404e+00  4.203425e+01  4.846438e+01  # Hw water
    268      90    1  -1.112800  4.148279e+01  8.024786e+00  2.985116e+01  # Ow water
    269      90    2   0.556400  4.129913e+01  8.903888e+00  2.951999e+01  # Hw water
    270      90    2   0.556400  4.150729e+01  7.473859e+00  2.906879e+01  # Hw water
    271      91    1  -1.112800  2.082429e+01  4.709168e+01  3.719588e+01  # Ow water
    272      91    2   0.556400  2.051950e+01  4.774450e+01  3.656568e+01  # Hw water
    273      91    2   0.556400  2.176068e+01  4.700473e+01  3.701744e+01  # Hw water
    274      92    1  -1.112800  2.868160e+01  3.671992e+01  3.792591e+01  # Ow water
    275      92    2   0.556400  2.904810e+01  3.592075e+01  3.754744e+01  # Hw water
    276      92    2   0.556400  2.942005e+01  3.713493e+01  3.837165e+01  # Hw water
    277      93    1  -1.112800  1.064641e+01  2.851042e+01  2.828235e+01  # Ow water
    278      93    2   0.556400  1.073174e+01  2.782117e+01  2.894106e+01  # Hw water
    279      93    2   0.556400  1.109844e+01  2.926342e+01  2.866298e+01  # Hw water
    280      94    1  -1.112800  1.234501e+01  3.174373e+01  4.561764e+01  # Ow water
    281      94    2   0.556400  1.293108e+01  3.249323e+01  4.572252e+01  # Hw water
    282      94    2   0.556400  1.178092e+01  3.198130e+01  4.488172e+01  # Hw water
    283      95    1  -1.112800  3.701926e+01  4.535191e+01  1.499973e+00  # Ow water
    284      95    2   0.556400  3.764599e+01  4.463001e+01  1.547892e+00  # Hw water
    285      95    2   0.556400  3.700814e+01  4.571914e+01  2.383853e+00  # Hw water
    286      96    1  -1.112800  1.628379e+01  2.162629e+00  4.933071e+01  # Ow water
    287      96    2   0.556400  1.691717e+01  1.499427e+00  4.905643e+01  # Hw water
    288      96    2   0.556400  1.630599e+01  2.134611e+00  5.028724e+01  # Hw water
    289      97    1  -1.112800  4.392748e+01  2.779223e+01  1.531304e+00  # Ow water
    290      97    2   0.556400  4.298655e+01  2.762713e+01  1.591528e+00  # Hw water
    291      97    2   0.556400  4.400233e+01  2.874602e+01  1.501110e+00  # Hw water
    292      98    1  -1.112800  2.476521e+01  8.243136e+00  1.372728e+01  # Ow water
    293      98    2   0.556400  2.539521e+01  7.523708e+00  1.376924e+01  # Hw water
    294      98    2   0.556400  2.528182e+01  9.025971e+00  1.391837e+01  # Hw water
    295      99    1  -1.112800  2.381588e+01  1.549562e+01  2.033977e+01  # Ow water
    296      99    2   0.556400  2.454942e+01  1.571807e+01  2.091306e+01  # Hw water
    297      99    2   0.556400  2.371089e+01  1.454954e+01  2.044051e+01  # Hw water
    298     100    1  -1.112800  1.205124e+01  3.453287e+01  5.028697e+01  # Ow water
    299     100    2   0.556400  1.190339e+01  3.544365e+01  5.003232e+01  # Hw water
    300     100    2   0.556400  1.254247e+01  3.415625e+01  4.955685e+01  # Hw water
    301     101    1  -1.112800  1.606267e+01  3.993106e+01  3.912413e+01  # Ow water
    302     101    2   0.556400  1.677246e+01  3.996777e+01  3.976528e+01  # Hw water
    303     101    2   0.556400  1.549625e+01  4.066869e+01  3.935067e+01  # Hw water
    304     102    1  -1.112800  2.825213e+01  9.375499e+00  3.541476e+01  # Ow water
    305     102    2   0.556400  2.884230e+01  8.824153e+00  3.490101e+01  # Hw water
    306     102    2   0.556400  2.872007e+01  9.528059e+00  3.623573e+01  # Hw water
    307     103    1  -1.112800  2.413065e+01  4.942917e+01  3.598194e+01  # Ow water
    308     103    2   0.556400  2.382760e+01  5.028670e+01  3.628033e+01  # Hw water
    309     103    2   0.556400  2.387777e+01  4.882810e+01  3.668265e+01  # Hw water
    310     104    1  -1.112800  2.360235e+01  5.028671e+01  8.662204e+00  # Ow water
    311     104    2   0.556400  2.291115e+01  5.015047e+01  9.310213e+00  # Hw water
    312     104    2   0.556400  2.314610e+01  5.028522e+01  7.820738e+00  # Hw water
    313     105    1  -1.112800  3.876473e+01  2.233437e+01  1.590056e+01  # Ow water
    314     105    2   0.556400  3.961525e+01  2.236138e+01  1.546226e+01  # Hw water
    315     105    2   0.556400  3.897090e+01  2.242852e+01  1.683054e+01  # Hw water
    316     106    1  -1.112800  3.794827e+01  6.360237e+00  3.509117e+01  # Ow water
    317     106    2   0.556400  3.862226e+01  6.155467e+00  3.444307e+01  # Hw water
    318     106    2   0.556400  3.839321e+01  6.912818e+00  3.573375e+01  # Hw water
    319     107    1  -1.112800  4.369344e+01  4.363821e+01  4.306038e+01  # Ow water
    320     107    2   0.556400  4.296251e+01  4.302579e+01  4.314351e+01  # Hw water
    321     107    2   0.556400  4.435909e+01  4.330016e+01  4.365943e+01  # Hw water
    322     108    1  -1.112800  2.243112e+01  6.367706e+00  3.239409e+01  # Ow water
    323     108    2   0.556400  2.264758e+01  5.447344e+00  3.254346e+01  # Hw water
    324     108    2   0.556400  2.306720e+01  6.852282e+00  3.292023e+01  # Hw water
    325     109    1  -1.112800  1.712508e+01  4.715099e+01  1.683042e+00  # Ow water
    326     109    2   0.556400  1.713664e+01  4.810573e+01  1.615478e+00  # Hw water
    327     109    2   0.556400  1.621743e+01  4.690841e+01  1.499880e+00  # Hw water
    328     110    1  -1.112800  3.753751e+01  4.564722e+01  1.076045e+01  # Ow water
    329     110    2   0.556400  3.845477e+01  4.551743e+01  1.051957e+01  # Hw water
    330     110    2   0.556400  3.708845e+01  4.578987e+01  9.927248e+00  # Hw water
    331     111    1  -1.112800  4.246275e+01  3.669636e+01  3.279608e+00  # Ow water
    332     111    2   0.556400  4.197620e+01  3.717120e+01  3.953416e+00  # Hw water
    333     111    2   0.556400  4.284211e+01  3.594785e+01  3.740101e+00  # Hw water
    334     112    1  -1.112800  2.202793e+01  1.747336e+01  1.500000e+00  # Ow water
    335     112    2   0.556400  2.229308e+01  1.830233e+01  1.898409e+00  # Hw water
    336     112    2   0.556400  2.279572e+01  1.690852e+01  1.587728e+00  # Hw water
    337     113    1  -1.112800  3.613649e+01  4.912193e+01  3.408969e+01  # Ow water
    338     113    2   0.556400  3.555012e+01  4.987788e+01  3.412037e+01  # Hw water
    339     113    2   0.556400  3.607487e+01  4.880685e+01  3.318794e+01  # Hw water
    340     114    1  -1.112800  3.993882e+00  2.530226e+01  3.182649e+00  # Ow water
    341     114    2   0.556400  3.769179e+00  2.443468e+01  3.518880e+00  # Hw water
    342     114    2   0.556400  3.596170e+00  2.533283e+01  2.312523e+00  # Hw water
    343     115    1  -1.112800  3.685074e+01  5.028671e+01  4.659945e+01  # Ow water
    344     115    2   0.556400  3.656330e+01  4.938660e+01  4.644644e+01  # Hw water
    345     115    2   0.556400  3.744223e+01  5.022552e+01  4.734954e+01  # Hw water
    346     116    1  -1.112800  2.627738e+01  2.569536e+01  2.895038e+01  # Ow water