13480
Atoms. Timestep: 0
Ow 13.2206 11.2399 38.9436
H 13.1841 10.3501 38.5927
H 12.6854 11.2073 39.7365
Ow 12.8018 30.373 48.6652
H 13.6165 29.8706 48.6722
H 12.1602 29.7952 49.0786
Ow 17.9123 8.42097 48.9809
H 16.9667 8.47991 49.1175
H 18.293 8.70915 49.8105
Ow 25.4833 15.9516 1.04527
H 26.2098 15.3989 0.75731
H 24.7575 15.3424 1.18104
Ow 0.907968 39.3395 16.3216
H 51.5241 39.1185 16.8106
H 0.86213 40.2887 16.2067
Ow 51.1577 12.6308 45.9517
H 0.329714 12.8686 45.2289
H 51.0841 11.678 45.8969
Ow 41.4824 37.5875 49.9843
H 42.0956 37.6132 50.7188
H 40.9293 36.8262 50.1599
Ow 47.7238 25.8548 1.33819
H 47.7555 25.0466 0.82631
H 48.5409 25.8554 1.83676
Ow 32.5736 21.9732 4.35347
H 31.8499 21.8891 3.73267
H 32.5165 22.8755 4.66779
Ow 48.0647 4.31418 9.92893
H 47.9231 3.75487 10.6927
H 47.6437 5.14302 10.1571
Ow 42.2548 39.1478 20.8793
H 42.4828 38.2847 21.2246
H 42.6981 39.7642 21.4622
Ow 33.6962 12.9118 9.93728
H 34.3165 12.2227 9.69953
H 33.9553 13.1737 10.8207
Ow 12.4497 42.2804 42.2652
H 12.0785 41.6955 41.6046
H 12.0483 43.1307 42.0856
Ow 37.1572 21.6286 23.9517
H 37.505 22.2553 24.5861
H 37.8879 21.0365 23.7738
Ow 40.7773 43.0621 23.196
H 39.9492 42.5887 23.1162
H 40.5658 43.8274 23.7306
Ow 27.2492 43.6125 15.2428
H 27.4912 44.3178 15.8431
H 27.2603 42.8228 15.7835
Ow 30.492 3.94241 46.5995
H 31.3661 4.19217 46.2997
H 30.6112 3.0782 46.9934
Ow 1.22131 36.4183 8.0464
H 1.09107 35.7677 8.7363
H 2.16345 36.5874 8.05073
Ow 7.84602 35.78 13.8257
H 7.39294 36.36 13.2137
H 8.52788 36.3275 14.2151
Ow 4.54307 4.35122 5.72089
H 4.06437 3.95372 6.44826
H 5.06317 3.63523 5.35608
Ow 13.1281 51.5099 20.7743
H 12.5406 0.191162 20.0239
H 12.6839 50.8912 21.354
Ow 16.4005 13.0819 23.3899
H 17.3395 13.2506 23.3118
H 16.3219 12.1299 23.3297
Ow 32.9489 14.1126 41.1792
H 32.2199 14.4319 40.6473
H 33.7322 14.3892 40.7035
Ow 31.7439 20.977 43.5631
H 32.5242 20.4859 43.3058
H 31.0154 20.3845 43.3773
Ow 19.8928 22.288 40.0559
H 19.441 22.9757 39.5669
H 20.5138 21.9165 39.4293
Ow 45.278 2.02561 42.7701
H 44.9852 1.70401 41.9174
H 44.7186 2.78213 42.9463
Ow 41.5708 1.64295 41.8739
H 42.278 2.25063 42.0902
H 40.8486 2.20518 41.5937
Ow 26.8817 7.90173 50.2641
H 26.2505 8.11685 49.5773
H 26.6938 6.98966 50.4856
Ow 35.6867 2.08708 36.1728
H 35.3077 2.93331 35.935
H 35.9801 2.20101 37.0767
Ow 6.78454 43.2662 38.2043
H 6.00113 42.7392 38.0468
H 7.50368 42.7354 37.8618
Ow 15.8232 15.3483 34.8883
H 15.8059 14.5338 34.3857
H 16.0973 16.0138 34.2573
Ow 7.0461 43.6015 8.82603
H 6.34796 43.9801 9.36029
H 7.62248 43.1688 9.45594
Ow 21.658 18.2487 38.3183
H 22.2644 17.5133 38.4063
H 22.0614 18.9542 38.8241
Ow 23.3851 24.6744 31.211
H 23.8208 25.2965 31.7936
H 22.5977 24.4107 31.6872
Ow 35.4224 21.7096 19.2749
H 35.3146 22.6579 19.2011
H 35.6156 21.5614 20.2006
Ow 14.7945 44.3762 26.9517
H 14.1529 44.9728 26.5662
H 15.1502 43.8921 26.2065
Ow 48.1466 12.7715 46.5444
H 47.2906 13.1921 46.6254
H 47.9601 11.9231 46.1421
Ow 46.9554 37.6168 19.2922
H 47.1562 37.6517 20.2275
H 46.0497 37.92 19.2297
Ow 23.0812 12.7529 38.6428
H 23.9435 13.0609 38.9214
H 23.2086 11.8238 38.4509
Ow 49.1545 13.2629 26.4121
H 49.9834 13.1225 26.8696
H 49.1749 12.6433 25.6828
Ow 19.2655 51.1505 29.5715
H 19.2014 0.633207 29.9143
H 18.6821 50.6362 30.1295
Ow 23.3462 12.6959 13.8805
H 24.2056 13.015 13.6051
H 23.2366 11.8678 13.4132
Ow 16.7358 49.4344 40.7914
H 16.2084 50.0057 41.3497
H 16.5589 49.7388 39.9013
Ow 10.5035 18.643 38.9065
H 9.58218 18.394 38.8323
H 10.7365 18.963 38.035
Ow 33.7112 18.904 49.491
H 32.9135 18.4036 49.6632
H 33.4483 19.8183 49.596
Ow 37.2888 15.6698 16.6523
H 37.882 14.9791 16.3566
H 37.2767 15.584 17.6056
Ow 27.2038 5.40043 26.1439
H 27.1863 5.9943 26.8944
H 27.009 5.95893 25.3913
Ow 21.7481 32.876 31.4649
H 21.2563 33.2193 30.7189
H 21.3122 32.0517 31.6809
Ow 50.7031 1.85326 7.1809
H 51.3588 2.36896 6.7115
H 50.2634 2.48491 7.75005
Ow 29.8399 31.5001 46.3949
H 30.7016 31.6344 46.7894
H 29.653 32.3218 45.941
Ow 34.7691 37.0277 3.49789
H 34.7083 37.2208 2.56234
H 34.82 37.8866 3.91737
Ow 8.85401 11.4748 32.0528
H 9.34755 11.569 31.2381
H 8.16605 12.1378 31.9948
Ow 23.6509 25.8217 41.5281
H 23.1267 26.6214 41.5724
H 23.0422 25.1223 41.766
Ow 42.2271 29.5033 19.6604
H 41.9515 29.6302 20.5682
H 43.003 30.0557 19.5656
Ow 48.4277 33.9479 34.4464
H 47.9174 33.3371 34.9781
H 49.0139 34.3769 35.0697
Ow 39.6297 24.2837 38.2126
H 38.8501 24.7022 38.5775
H 39.3059 23.7865 37.4615
Ow 34.538 7.5484 40.8355
H 34.8153 8.46137 40.7591
H 35.0577 7.08402 40.1794
Ow 25.559 13.503 25.4666
H 25.6353 14.1483 24.7637
H 26.0074 13.9047 26.2108
Ow 35.4647 27.3814 27.5452
H 35.9717 26.6498 27.8973
H 34.5535 27.0955 27.6107
Ow 44.6627 15.3322 42.6449
H 45.3978 15.7516 43.0922
H 44.745 14.4045 42.8659
Ow 47.2362 47.108 22.3508
H 48.175 46.9829 22.2116
H 47.063 46.7003 23.1993
Ow 44.0426 38.3477 33.3126
H 44.9492 38.6069 33.4774
H 43.8888 37.6179 33.9125
Ow 46.8542 25.7215 8.28042
H 47.1597 25.918 9.16602
H 45.9031 25.6535 8.36417
Ow 25.1816 13.5326 29.4661
H 25.2746 14.0101 30.2905
H 25.7381 12.761 29.5716
Ow 40.0883 24.3141 24.7656
H 40.7936 24.7065 25.2801
H 39.2886 24.5482 25.2367
Ow 49.4994 24.5451 49.0474
H 50.1219 23.8181 49.0569
H 50.0468 25.3293 49.0073
Ow 26.8517 45.2565 48.0413
H 27.2299 45.6624 47.2612
H 27.4831 45.4395 48.737
Ow 30.2933 15.3986 43.3885
H 30.1628 16.1824 43.9223
H 29.8649 15.6007 42.5567
Ow 13.5977 46.8056 20.0576
H 13.6813 46.0663 19.4555
H 14.0181 47.5349 19.6019
Ow 16.0403 26.6798 17.0027
H 16.3546 27.5469 16.7468
H 16.3968 26.0896 16.3387
Ow 31.682 24.6335 39.8971
H 31.1614 23.9789 40.3625
H 32.4785 24.723 40.4204
Ow 0.878508 47.724 15.6115
H 0.651366 47.0567 14.9639
H 1.33718 48.3984 15.1105
Ow 5.46387 26.9074 32.4298
H 5.82568 27.7929 32.3969
H 4.71534 26.9317 31.8337
Ow 33.1353 32.0508 26.0662
H 33.5676 31.4721 25.4381
H 33.5362 31.8337 26.9079
Ow 40.1564 40.0606 13.1024
H 39.5292 40.5759 12.5952
H 40.643 39.5613 12.4465
Ow 16.0429 30.1821 41.7922
H 15.7108 29.3115 41.5734
H 15.9427 30.6871 40.9852
Ow 48.2902 31.1028 14.9303
H 47.9415 31.1089 15.8217
H 47.9608 30.2889 14.5492
Ow 38.9599 11.7486 10.4257
H 38.8424 11.6544 11.371
H 39.2213 10.8771 10.1283
Ow 33.873 5.39886 28.0082
H 34.4326 6.08948 27.6531
H 34.4836 4.72491 28.3068
Ow 39.2828 44.9694 41.2722
H 39.4113 45.7884 40.7939
H 40.0122 44.9359 41.8911
Ow 44.3969 38.8958 19.0892
H 44.0802 39.2794 18.2714
H 43.6618 38.9839 19.696
Ow 8.3377 35.1452 29.0511
H 7.85749 35.4794 29.8087
H 8.66158 35.9291 28.6074
Ow 47.304 0.331726 19.2575
H 47.9289 51.4834 19.9355
H 46.6848 51.0119 19.2132
Ow 35.4272 10.3873 4.0479
H 34.57 10.6911 3.74944
H 35.3602 9.43249 4.03804
Ow 15.7223 18.9484 38.8614
H 15.7911 18.0106 39.0404
H 16.4028 19.119 38.2102
Ow 4.77143 31.5206 50.5179
H 5.24379 32.3489 50.601
H 4.52235 31.2953 51.4143
Ow 40.6403 16.5079 19.0723
H 40.6659 15.9728 19.8656
H 39.711 16.6939 18.9382
Ow 29.8311 40.5574 13.3764
H 28.9521 40.5571 13.7553
H 30.113 39.6439 13.4233
Ow 11.3853 5.44658 28.1863
H 10.6694 5.21096 28.7764
H 11.9474 6.01971 28.7076
Ow 44.8327 49.9754 1.00451
H 45.2791 50.6485 1.51839
H 45.5223 49.5891 0.464616
Ow 22.2859 28.3056 24.2367
H 22.4046 28.6225 25.1321
H 22.0976 27.3723 24.3354
Ow 46.4153 47.6243 13.5804
H 47.297 47.6575 13.2093
H 45.8338 47.6543 12.8207
Ow 6.40982 8.82333 10.6777
H 6.05923 9.58492 11.1396
H 5.83024 8.71189 9.92415
Ow 38.4173 47.6194 13.9993
H 38.39 47.0177 13.2554
H 37.5692 47.5083 14.429
Ow 45.1998 39.2356 44.846
H 44.3224 38.8794 44.9858
H 45.5164 39.4453 45.7246
Ow 12.4457 36.415 4.11551
H 11.993 35.8688 4.75807
H 11.876 37.1761 4.00366
Ow 50.9735 7.96942 38.7273
H 50.25 7.69 39.2882
H 50.9764 8.92407 38.7971
Ow 19.0214 36.1307 8.06076
H 19.7364 35.4948 8.08826
H 19.137 36.5858 7.22668
Ow 26.7132 44.4199 7.95536
H 26.568 43.5072 8.20445
H 27.6577 44.5461 8.04595
Ow 29.1237 8.87558 29.3893
H 29.1224 9.21549 28.4944
H 29.9582 9.16793 29.7559
Ow 22.9259 35.6304 14.9305
H 22.3816 35.1137 15.5246
H 22.7259 36.54 15.1517
Ow 21.824 39.9395 38.0042
H 21.971 40.3255 38.8677
H 21.2323 39.205 38.1674
Ow 34.0498 0.986215 9.87668
H 33.5102 0.506216 9.24849
H 34.021 1.89374 9.57368
Ow 37.8405 36.0533 44.7001
H 38.1886 35.1627 44.6553
H 37.0501 35.9754 45.2344
Ow 14.0681 30.7352 32.9748
H 14.5713 31.3934 32.4955
H 14.1903 30.9637 33.8963
Ow 35.066 32.2162 45.3088
H 34.5154 32.0786 44.538
H 34.7284 33.0197 45.7045
Ow 1.02849 44.9806 47.1935
H 0.433014 45.1542 46.4645
H 1.72689 45.6273 47.0922
Ow 48.2626 22.444 40.6691
H 49.082 22.8796 40.9035
H 47.6476 23.1598 40.5088
Ow 27.022 2.84417 7.98543
H 27.0705 3.1931 8.87544
H 27.1438 1.9006 8.09061
Ow 47.631 42.4216 2.89911
H 47.3322 42.669 3.77417
H 47.2678 41.547 2.75985
Ow 42.8133 32.3687 21.081
H 42.4579 31.6436 21.595
H 43.5529 31.9874 20.6077
Ow 51.0001 1.68105 22.4962
H 50.3801 0.960511 22.3835
H 50.8509 1.98837 23.3904
Ow 27.333 1.68163 41.3935
H 27.4251 1.9829 42.2974
H 26.6031 1.063 41.4199
Ow 33.4393 5.12758 19.8616
H 33.6033 6.0589 20.0098
H 34.1589 4.68289 20.3095
Ow 49.1441 24.6455 43.8127
H 48.9027 24.1279 44.5808
H 50.0993 24.6962 43.848
Ow 37.5879 20.2851 14.4541
H 36.7197 20.4108 14.8372
H 37.5316 19.4428 14.003
Ow 45.0234 14.9904 21.3567
H 45.2768 14.9625 22.2793
H 45.2041 15.8903 21.0853
Ow 27.6827 30.9777 19.0682
H 27.2173 31.4283 19.7729
H 28.4472 30.5906 19.4948
Ow 14.7466 35.0991 8.34692
H 14.524 35.6961 7.63254
H 15.6778 34.9149 8.22435
Ow 21.6591 26.8815 1.12802
H 22.221 26.186 0.786353
H 20.8349 26.7796 0.652141
Ow 34.7164 32.1597 16.8228
H 34.5457 32.1935 15.8816
H 35.67 32.1159 16.8924
Ow 23.7042 13.1295 43.1825
H 24.6201 12.8545 43.1397
H 23.6412 13.8523 42.5582
Ow 11.0909 29.1707 14.1786
H 10.6481 29.9628 13.8741
H 10.8171 29.0786 15.0912
Ow 50.3079 49.1951 48.4361
H 51.2423 49.3595 48.563
H 50.2168 48.2465 48.5261
Ow 13.5335 9.4795 9.87543
H 13.1179 8.87985 9.25577
H 14.4354 9.1665 9.94419
Ow 36.1756 44.0479 37.2037
H 36.2579 44.7029 37.8968
H 36.406 43.2207 37.6266
Ow 37.5518 36.3529 38.4009
H 36.8298 35.7818 38.6632
H 37.2441 37.2366 38.6024
Ow 23.0662 15.4065 22.9644
H 22.4458 15.5838 22.2574
H 22.6608 15.791 23.7416
Ow 15.9808 50.0972 0.797017
H 15.4114 49.4284 0.416349
H 16.8267 49.9639 0.369427
Ow 29.893 29.574 9.94632
H 28.9991 29.2489 10.0534
H 30.1536 29.2769 9.07451
Ow 4.02384 1.07777 40.8797
H 3.1335 1.36244 41.0857
H 4.2222 1.49731 40.0425
Ow 22.1451 13.9271 8.0154
H 22.0377 13.5211 7.15527
H 21.5588 13.4333 8.58875
Ow 35.5378 7.1775 4.55808
H 35.9344 7.04336 3.69729
H 34.6841 6.74867 4.49845
Ow 43.7553 43.3512 32.6836
H 43.0825 43.9472 33.0129
H 44.2279 43.0671 33.466
Ow 8.56583 47.7373 23.5099
H 8.17074 48.4723 23.0409
H 8.70164 47.0692 22.838
Ow 45.2017 38.8362 4.34551
H 44.4425 38.2845 4.15705
H 45.8283 38.247 4.76547
Ow 32.8914 25.7698 3.01975
H 33.4874 26.4542 3.32417
H 32.6472 25.2938 3.81348
Ow 47.1679 23.5851 36.3569
H 47.1275 24.0504 37.1924
H 48.0706 23.2719 36.3
Ow 19.7641 33.9671 12.3147
H 19.5889 33.256 11.6983
H 20.6597 33.8101 12.6139
Ow 2.66809 4.53884 13.0611
H 2.16012 4.67265 13.8613
H 3.43726 5.09831 13.1688
Ow 47.5726 4.42509 51.2312
H 47.2508 4.3117 50.3369
H 47.7783 3.53813 51.5265
Ow 22.3849 2.68328 11.9089
H 21.4798 2.99286 11.9431
H 22.5565 2.54569 10.9773
Ow 37.6215 22.1541 44.8708
H 36.8555 21.6432 44.6091
H 37.8824 22.6196 44.0762
Ow 27.5687 3.9253 3.60664
H 27.6501 4.83185 3.31036
H 28.3296 3.78802 4.171
Ow 32.1615 17.9547 34.928
H 31.2253 17.8805 35.1129
H 32.5074 18.4814 35.6485
Ow 32.1155 37.4549 32.7442
H 31.4972 37.5339 33.4706
H 32.0572 38.294 32.2872
Ow 19.527 43.5043 41.0588
H 19.7057 43.3001 41.9767
H 18.883 42.8498 40.7883
Ow 32.7816 16.0069 33.1714
H 32.1571 15.2962 33.3168
H 32.7431 16.528 33.9734
Ow 7.78553 48.6362 4.98895
H 7.89039 47.6914 5.1008
H 7.43719 48.9399 5.8272
Ow 43.2521 25.3633 21.8478
H 42.9745 25.9549 21.1484
H 43.3761 24.5195 21.4133
Ow 43.3735 37.5898 0.6836
H 43.0715 38.4048 1.08459
H 43.3083 36.9396 1.38308
Ow 24.0965 37.415 24.599
H 23.9995 37.4649 25.55
H 23.2661 37.051 24.2919
Ow 26.9372 6.52176 44.1711
H 27.485 7.29946 44.0646
H 27.5451 5.8362 44.4482
Ow 32.5156 22.181 45.9242
H 33.0465 22.9347 45.6667
H 32.1988 21.817 45.0976
Ow 25.1783 44.0574 25.7438
H 24.8823 44.5465 24.9761
H 24.5971 44.3426 26.4489
Ow 22.867 3.74285 44.7767
H 22.9863 4.51299 45.3325
H 22.8931 3.00282 45.3833
Ow 13.0926 13.1817 36.8029
H 12.2573 13.0263 36.362
H 12.9836 12.7887 37.6689
Ow 36.6455 43.951 12.2735
H 36.0687 43.9912 11.5106
H 37.3069 44.6233 12.11
Ow 8.25303 42.3987 23.7916
H 9.08837 42.853 23.9016
H 8.48194 41.5775 23.3564
Ow 14.2958 39.0662 21.9795
H 14.3148 38.1231 22.1417
H 14.9522 39.4257 22.5764
Ow 7.60879 50.55 31.4978
H 8.21683 51.2875 31.4469
H 6.75569 50.953 31.6592
Ow 34.2139 23.0507 23.495
H 34.9735 23.5521 23.1986
H 33.5663 23.1621 22.7989
Ow 37.2392 26.6732 2.5884
H 37.5066 27.2816 1.89953
H 37.1673 27.2161 3.37347
Ow 36.8113 27.2969 19.2028
H 37.2826 27.6741 19.9457
H 37.4683 26.7753 18.7417
Ow 27.6838 11.719 9.45995
H 26.9414 11.3182 9.00786
H 28.4198 11.6075 8.85827
Ow 41.1988 19.8862 9.66103
H 40.3321 19.5252 9.47492
H 41.7109 19.1366 9.96445
Ow 32.8015 47.7256 7.31038
H 31.8687 47.911 7.41846
H 33.0014 48.0118 6.4191
Ow 30.8805 42.5511 8.78413
H 31.7421 42.768 9.14028
H 30.392 42.2058 9.53134
Ow 6.04045 46.8465 33.9535
H 6.22599 46.6531 34.8724
H 6.77943 47.3833 33.6672
Ow 48.6925 13.3959 40.7672
H 48.1565 13.8646 40.1275
H 48.2107 12.5865 40.9371
Ow 1.5789 18.2061 43.9896
H 2.46755 18.3763 44.302
H 1.03294 18.2687 44.7734
Ow 36.247 3.68773 18.5985
H 37.204 3.6795 18.5846
H 35.9995 4.16369 17.8057
Ow 38.4942 25.6824 17.4962
H 39.1086 26.3756 17.2551
H 39.0487 24.9257 17.6863
Ow 0.690887 10.1051 14.2333
H 1.57855 9.9631 13.9044
H 0.678458 9.67045 15.086
Ow 18.6312 27.5294 40.8728
H 19.2957 26.8487 40.9791
H 18.9505 28.2611 41.4008
Ow 1.08393 43.7899 43.8684
H 1.40601 43.641 42.9794
H 1.84577 44.1146 44.3484
Ow 15.7335 10.2608 6.48248
H 15.8983 10.963 7.11175
H 15.44 10.7118 5.69092
Ow 19.2875 29.689 38.8213
H 19.0999 28.8352 39.2113
H 19.8604 29.4935 38.0798
Ow 33.7957 19.555 42.6756
H 33.7567 19.7571 41.7407
H 33.2793 18.7546 42.7698
Ow 0.889919 47.2859 42.0304
H 1.17422 47.5049 42.9178
H 51.5742 46.6727 42.155
Ow 49.6177 9.66077 31.9442
H 49.976 10.5176 32.1758
H 48.673 9.75466 32.0665
Ow 7.90085 4.58698 12.7617
H 8.2698 4.4122 11.8959
H 8.31806 3.94367 13.3347
Ow 13.2619 17.6005 17.64
H 12.7003 17.6203 18.4149
H 14.1444 17.4693 17.9866
Ow 20.2274 1.19002 19.94
H 19.806 1.9485 19.5358
H 21.1361 1.23325 19.6422
Ow 39.2387 49.2928 3.97054
H 38.5904 48.5991 4.09125
H 40.0138 48.9808 4.43748
Ow 2.88422 28.5147 9.58898
H 2.48114 28.0398 8.8622
H 3.64932 28.9406 9.20241
Ow 22.2753 20.7136 21.5513
H 22.9976 21.106 21.0608
H 21.7128 20.3257 20.8809
Ow 12.596 19.5106 50.6318
H 12.4858 19.4644 49.6821
H 12.1619 20.3255 50.8844
Ow 16.7232 9.33858 28.4638
H 17.0583 9.12739 29.3352
H 15.7715 9.29148 28.5548
Ow 6.86472 42.5281 26.3095
H 6.95596 43.4787 26.2431
H 7.15387 42.1993 25.4583
Ow 0.693395 24.0525 12.0879
H 1.23593 24.2805 12.8428
H 0.656335 24.8552 11.5678
Ow 40.7841 8.28531 31.5218
H 41.2732 7.61231 31.0485
H 40.1733 8.638 30.8747
Ow 41.0743 25.3376 35.2093
H 41.0306 24.4257 35.4969
H 41.5427 25.3041 34.3752
Ow 35.5784 16.4591 45.0432
H 34.8274 16.3542 45.6274
H 35.3011 16.0554 44.2209
Ow 17.7522 50.3298 34.1691
H 18.4235 50.3043 34.8509
H 17.3583 49.4576 34.1874
Ow 45.7158 44.0387 10.805
H 45.8096 43.1649 10.4256
H 46.2116 43.9997 11.6228
Ow 39.2721 24.7057 22.1754
H 39.5776 24.3967 23.0283
H 39.7694 25.5085 22.0189
Ow 17.8578 34.233 30.6664
H 17.932 34.1948 31.62
H 17.5937 33.3492 30.4107
Ow 37.5127 19.3553 18.5669
H 37.8267 20.2593 18.5475
H 37.8898 18.9534 17.7843
Ow 45.2078 46.9428 41.7722
H 46.1468 46.8919 41.9509
H 44.9928 47.8693 41.8799
Ow 14.1929 6.21801 13.9637
H 13.7528 7.05359 13.8077
H 13.6058 5.56328 13.5858
Ow 28.9081 37.6343 44.0379
H 28.9606 38.5468 44.3222
H 28.1029 37.5895 43.5223
Ow 3.20052 39.1931 17.9535
H 2.43809 39.3664 17.4013
H 2.93088 38.4649 18.5132
Ow 19.0932 2.20662 33.6985
H 19.0071 3.14868 33.5524
H 18.6266 2.04731 34.5189
Ow 44.3158 40.2089 14.2671
H 43.8574 39.8492 15.0265
H 45.211 39.8802 14.3494
Ow 49.2141 26.6323 29.0146
H 49.2417 27.1392 29.8261
H 48.4827 26.0266 29.1348
Ow 24.4325 47.8281 50.0687
H 25.1908 47.2519 50.1643
H 24.6308 48.5804 50.6264
Ow 4.54797 19.5704 9.02646
H 4.48472 18.6769 8.68914
H 5.47568 19.7921 8.94622
Ow 41.5551 10.6858 19.0551
H 41.8119 11.1787 19.8344
H 42.0038 9.84501 19.1442
Ow 16.7672 15.6373 10.4802
H 17.126 16.203 11.164
H 17.4903 15.5165 9.86479
Ow 34.6576 36.433 33.0177
H 35.2235 37.107 32.6412
H 33.7805 36.8156 32.9943
Ow 41.2578 6.73977 37.7381
H 42.2139 6.74539 37.783
H 40.9771 6.51731 38.6258
Ow 40.198 28.4738 29.8674
H 40.1254 27.562 29.585
H 40.3745 28.4207 30.8067
Ow 10.8894 17.447 33.3109
H 10.9579 18.226 33.8628
H 11.7837 17.2874 33.009
Ow 0.912089 14.557 0.786227
H 0.61076 14.1794 1.61259
H 0.744212 13.8753 51.5443
Ow 17.5451 5.02456 35.149
H 17.8197 4.28793 35.6951
H 17.0713 5.60292 35.7467
Ow 48.2814 23.678 51.1813
H 48.6865 24.1401 50.4474
H 47.5852 23.1566 50.7817
Ow 14.9595 35.1444 41.4154
H 14.1809 34.6328 41.6352
H 15.312 35.4205 42.2614
Ow 33.413 38.83 37.086
H 33.2053 39.4871 36.4217
H 34.0227 38.2337 36.6513
Ow 40.261 38.1292 9.29732
H 40.7458 38.7252 9.86816
H 39.3516 38.4204 9.36323
Ow 46.8811 14.3713 38.9706
H 46.7069 13.4329 38.898
H 46.0143 14.772 39.0355
Ow 19.7973 45.2451 31.9393
H 19.6236 46.1705 31.7675
H 20.2297 45.2365 32.7932
Ow 24.4602 30.5735 41.5584
H 23.9747 30.3452 42.3511
H 24.7189 31.4856 41.6897
Ow 16.2632 24.5899 27.4054
H 15.6838 24.7744 28.1446
H 15.6816 24.5634 26.6455
Ow 30.9266 39.3468 40.4519
H 30.4828 40.0603 39.9934
H 31.7677 39.2597 40.0035
Ow 27.8522 43.3047 0.195531
H 28.4428 43.6166 50.9186
H 28.0381 43.8679 0.94684
Ow 4.57125 50.7748 23.321
H 4.49337 50.3382 24.1693
H 3.73786 51.2321 23.2091
Ow 40.4364 20.4029 20.2059
H 40.1464 21.315 20.1899
H 41.242 20.4163 20.7226
Ow 23.0327 4.87713 0.317615
H 22.8911 5.43409 1.0831
H 23.9831 4.77576 0.267106
Ow 1.48072 38.7598 46.6834
H 1.47025 37.9964 47.2609
H 2.37694 38.7955 46.3491
Ow 13.453 24.818 11.1008
H 13.2135 24.5804 11.9966
H 14.1972 25.4116 11.2008
Ow 34.4496 47.4687 45.7657
H 34.9921 46.7091 45.9779
H 34.9709 47.9679 45.137
Ow 28.9267 30.7441 13.3704
H 28.3412 31.248 12.8051
H 28.9128 29.8602 13.0032
Ow 6.27742 42.9431 22.036
H 6.93516 42.6213 22.6524
H 6.12122 43.849 22.303
Ow 31.5471 8.9677 4.91208
H 30.7893 8.42482 5.12953
H 31.8407 9.31797 5.75314
Ow 16.0798 18.2442 14.0308
H 15.1336 18.1273 13.9447
H 16.4283 18.0246 13.1668
Ow 1.45951 22.5985 7.186
H 0.92205 23.0851 6.56106
H 0.850489 22.3441 7.87928
Ow 9.97684 8.43903 15.2172
H 9.40779 7.74016 15.5397
H 9.40908 8.97408 14.6626
Ow 31.0175 47.4881 28.083
H 30.3057 46.8634 28.2219
H 31.6826 46.9919 27.6058
Ow 21.3743 40.7247 40.9668
H 21.6722 40.622 41.8707
H 20.468 40.4168 40.9763
Ow 42.8471 22.9872 23.6838
H 43.7835 22.9762 23.882
H 42.7155 23.7974 23.1915
Ow 13.7742 25.6354 48.397
H 12.8569 25.8908 48.4954
H 13.7393 24.7351 48.0739
Ow 40.5053 2.87218 39.4275
H 39.5859 2.68388 39.239
H 40.9571 2.71596 38.5982
Ow 35.9748 11.1197 25.6089
H 36.6768 10.49 25.4449
H 36.2967 11.6545 26.3346
Ow 7.84535 41.056 17.7661
H 7.00323 41.5086 17.8133
H 8.01009 40.7614 18.6618
Ow 49.1673 45.1837 28.7569
H 49.418 44.8639 29.6235
H 48.6521 44.4715 28.378
Ow 35.3485 5.83039 33.4032
H 35.9422 6.17181 32.7344
H 34.485 6.15253 33.1447
Ow 31.0717 35.099 31.4806
H 31.4232 35.8651 31.9341
H 31.1836 34.3798 32.1023
Ow 23.7699 18.864 23.2023
H 23.4377 19.7249 22.9481
H 23.6417 18.3186 22.4261
Ow 10.9031 43.5204 24.6145
H 10.6576 44.3023 24.12
H 11.686 43.1925 24.1719
Ow 29.3946 13.7076 35.2871
H 29.9792 14.3936 35.6095
H 29.8845 12.8952 35.4147
Ow 33.4012 30.0517 43.4741
H 32.8856 29.963 44.2757
H 33.445 30.9954 43.3202
Ow 4.44313 18.7042 42.9778
H 4.12272 17.8658 42.645
H 3.91488 19.3604 42.5234
Ow 2.12439 28.8249 28.8442
H 2.49548 29.6981 28.7174
H 1.39245 28.9603 29.446
Ow 13.5259 20.6309 33.07
H 13.928 20.1879 33.8172
H 12.5913 20.6488 33.2761
Ow 48.9181 33.3762 28.9391
H 49.6695 33.4473 28.3504
H 49.0492 34.0742 29.5808
Ow 33.7717 32.0689 8.0227
H 34.6515 32.1473 8.39159
H 33.8866 32.2447 7.0888
Ow 1.61458 28.1067 50.2402
H 2.01196 28.7941 49.7056
H 2.28405 27.8902 50.8892
Ow 25.63 44.0519 29.8931
H 25.7773 44.8602 29.402
H 25.3536 44.3455 30.7612
Ow 25.0184 9.54669 39.2014
H 24.4214 9.58511 38.4542
H 25.553 8.76892 39.0418
Ow 2.26885 30.3858 3.55178
H 2.58813 30.2352 4.44151
H 1.43573 29.9161 3.51305
Ow 28.1458 3.73374 14.1448
H 28.1442 4.18917 14.9867
H 28.9484 3.21218 14.1556
Ow 16.9117 36.4721 37.8107
H 16.528 37.2613 37.4283
H 17.7523 36.7616 38.1655
Ow 46.4348 34.9949 1.43169
H 46.3285 35.056 0.482368
H 45.7238 34.4207 1.71635
Ow 51.3957 28.8948 3.64552
H 0.183073 28.192 4.2651
H 50.5696 28.6329 3.23916
Ow 19.7957 27.2858 33.0173
H 19.5513 27.2865 32.0918
H 20.2886 28.0977 33.136
Ow 26.0967 39.9953 22.3681
H 26.4201 39.2235 22.8327
H 25.5195 39.6433 21.6905
Ow 2.59299 29.0003 33.0996
H 2.42232 29.3641 33.9683
H 2.45381 28.0588 33.2021
Ow 4.84326 24.9705 21.991
H 4.99282 25.5125 22.7657
H 4.95101 24.0718 22.3023
Ow 10.1512 4.91217 9.94487
H 9.49359 5.11705 9.28019
H 10.3189 5.7471 10.3819
Ow 41.1681 35.2715 8.34575
H 40.882 34.9828 7.47911
H 40.3706 35.5912 8.76761
Ow 44.9489 2.62803 26.4309
H 45.5346 2.73889 25.682
H 44.6429 3.51304 26.6293
Ow 18.3967 44.0959 46.8924
H 18.2641 44.6744 46.1414
H 18.0891 44.6033 47.6434
Ow 32.7055 34.8142 34.2879
H 33.4091 35.3783 33.967
H 33.0379 34.4622 35.1136
Ow 3.39946 18.8219 38.6765
H 2.76125 19.4327 39.045
H 4.14752 19.3702 38.4399
Ow 7.61105 51.1495 42.7944
H 8.31038 0.393204 42.833
H 7.17444 51.3149 41.9588
Ow 8.57925 45.1927 7.10218
H 9.12404 44.5485 6.64995
H 8.00654 44.6705 7.66396
Ow 13.3531 27.434 16.9949
H 14.2416 27.084 17.0603
H 12.8132 26.8106 17.4808
Ow 30.4418 5.1281 21.2787
H 29.5242 5.0024 21.0371
H 30.438 5.90265 21.8411
Ow 46.92 20.5983 29.1513
H 46.7174 19.74 28.7793
H 47.8435 20.5417 29.3966
Ow 17.0605 38.1246 9.29543
H 17.6358 37.6109 8.7285
H 17.4388 38.0306 10.1697
Ow 16.5915 5.94084 46.0213
H 15.7859 5.58922 46.4003
H 16.7132 5.44342 45.2126
Ow 14.8293 41.6598 43.2839
H 15.3911 41.6829 42.5093
H 13.9428 41.7725 42.9408
Ow 39.8043 14.8919 3.49367
H 39.8206 13.999 3.83824
H 39.1813 15.3542 4.05442
Ow 1.61579 35.5924 30.9185
H 0.751687 35.9857 31.0402
H 1.52286 34.7006 31.2537
Ow 27.249 40.5845 28.9788
H 27.8426 40.3757 29.7
H 26.5044 39.9958 29.1026
Ow 43.0937 18.6659 23.4809
H 43.208 19.4952 23.0167
H 42.9948 18.0142 22.7869
Ow 33.6008 9.91324 47.2571
H 32.6901 10.1916 47.1602
H 33.5553 9.12978 47.8051
Ow 4.28219 23.1318 44.8175
H 4.20613 23.8348 45.4626
H 4.85701 23.4887 44.1404
Ow 49.5698 21.2899 36.2583
H 48.8391 20.6897 36.11
H 49.9885 20.9659 37.0557
Ow 22.2316 28.0612 40.4564
H 21.8457 28.3151 41.2948
H 21.6179 27.4226 40.0934
Ow 12.0713 51.1726 9.71979
H 12.0037 50.442 9.10514
H 12.9857 51.1645 10.0026
Ow 49.2116 51.0818 0.946784
H 50.0695 50.9888 1.36099
H 49.4056 51.3733 51.4646
Ow 30.8584 18.2098 4.40105
H 30.2444 18.9383 4.30884
H 30.791 17.9541 5.321
Ow 39.455 46.864 34.7199
H 39.0518 47.7291 34.6469
H 38.7307 46.2797 34.944
Ow 36.7496 23.4815 21.8962
H 36.8584 22.8713 22.6256
H 37.4698 24.1043 21.9949
Ow 46.8336 25.0027 13.0549
H 47.6149 24.6366 12.6405
H 46.5443 24.3234 13.6641
Ow 5.14101 16.7231 7.50313
H 4.66684 17.0796 6.75188
H 5.22154 15.7882 7.31451
Ow 6.14819 16.9441 22.6993
H 5.59776 17.6387 23.0608
H 6.92542 16.9385 23.258
Ow 38.3815 6.94061 49.2379
H 38.7735 6.13853 49.5833
H 37.9113 7.31744 49.9816
Ow 25.6742 39.5685 16.3655
H 24.806 39.2014 16.1986
H 26.1146 38.909 16.9015
Ow 40.8906 10.0696 49.2488
H 41.4575 10.5633 49.8415
H 40.0029 10.259 49.5525
Ow 35.0584 9.18938 51.0902
H 34.7846 8.62699 50.3656
H 34.265 9.66363 51.3389
Ow 47.4075 30.4311 9.30901
H 47.8491 29.6862 8.90117
H 47.2957 30.1723 10.2238
Ow 5.93582 1.26312 24.7125
H 5.23526 1.9153 24.7222
H 5.60829 0.567548 24.1423
Ow 16.0388 9.31961 41.9234
H 15.2667 9.81886 42.1896
H 16.5819 9.27955 42.7106
Ow 18.2179 1.69815 15.0023
H 18.0922 1.84207 14.0644
H 19.1218 1.39292 15.0793
Ow 44.6773 30.4769 5.73783
H 44.9192 29.5532 5.67151
H 43.9355 30.5742 5.14077
Ow 29.5457 6.14057 1.41559
H 29.9988 6.74141 0.823986
H 30.1951 5.46675 1.61681
Ow 23.738 5.63884 46.5141
H 24.618 5.89312 46.792
H 23.3975 5.11864 47.2419
Ow 43.3547 22.8258 42.223
H 43.8362 22.192 42.7548
H 43.3151 23.6134 42.7655
Ow 42.6328 40.9871 34.305
H 43.0918 40.1793 34.0751
H 43.3208 41.5724 34.6217
Ow 7.86252 37.4091 20
H 8.74312 37.1862 20.3018
H 7.91036 37.3377 19.0466
Ow 49.8806 42.0367 4.55955
H 49.2475 42.2529 3.87493
H 50.168 41.1483 4.34884
Ow 36.5852 26.5927 23.6212
H 37.1713 26.8891 22.9249
H 36.6822 27.2483 24.3118
Ow 40.0313 16.3109 7.09572
H 39.3437 16.0598 6.47894
H 40.7436 16.6326 6.54312
Ow 25.3476 33.0437 41.6314
H 26.1892 33.1861 41.1982
H 24.8966 33.8852 41.5621
Ow 36.5595 28.8183 25.1937
H 36.524 28.4628 26.0818
H 36.9289 29.6948 25.3007
Ow 30.8252 16.6651 21.9638
H 30.2968 16.3143 22.6806
H 30.2443 17.2801 21.516
Ow 36.5384 46.4877 38.4258
H 36.0235 46.8506 39.1465
H 37.446 46.6876 38.6549
Ow 32.3882 25.1249 36.3006
H 32.3625 25.8943 36.8695
H 31.5635 24.6709 36.4735
Ow 23.5645 21.3044 32.7735
H 24.0524 22.0499 33.1235
H 22.764 21.2741 33.2974
Ow 12.4153 1.10421 26.6114
H 12.5782 2.03117 26.7858
H 11.7937 0.838169 27.289
Ow 27.2228 10.9677 38.2635
H 27.643 10.1566 37.9777
H 26.5028 10.6801 38.8248
Ow 32.8753 42.342 23.4199
H 32.5373 41.5126 23.0823
H 33.4322 42.6779 22.7175
Ow 33.5113 37.9372 44.7262
H 33.8823 38.7938 44.9382
H 32.8161 37.8104 45.3719
Ow 11.1165 26.8375 8.41758
H 11.5669 26.5118 7.63833
H 10.2727 27.1522 8.09309
Ow 44.7632 38.6728 22.8707
H 44.753 38.1281 23.6577
H 45.5303 38.3743 22.3822
Ow 46.5027 14.3854 16.4139
H 45.7953 14.3444 15.7704
H 47.0332 13.6084 16.2374
Ow 14.145 13.3117 11.7158
H 13.6326 13.7147 12.4168
H 13.5314 13.2319 10.9855
Ow 0.779155 17.8663 19.8747
H 51.4733 17.3323 20.2219
H 0.343643 18.5383 19.3504
Ow 13.3207 12.0952 24.3483
H 14.2018 12.4657 24.3995
H 13.0684 11.9492 25.2601
Ow 15.9609 21.545 17.5084
H 16.5602 22.241 17.7779
H 16.1846 21.3767 16.5931
Ow 32.8025 46.0245 40.0994
H 32.9062 46.0783 39.1494
H 32.0325 46.5611 40.2876
Ow 1.48979 4.26613 33.8596
H 1.95877 3.46182 34.0818
H 0.700017 4.24049 34.3998
Ow 37.3687 1.43928 33.4218
H 36.9177 0.686933 33.0387
H 36.773 2.17469 33.2786
Ow 4.09235 15.8912 14.6557
H 3.41336 15.2178 14.6151
H 3.72728 16.5659 15.2281
Ow 24.6721 36.6433 13.1159
H 25.0472 35.9511 12.5715
H 24.1775 36.1771 13.7899
Ow 4.39823 25.6599 5.92308
H 4.98681 25.0094 5.54016
H 3.83433 25.9295 5.19814
Ow 19.8971 38.2364 35.3503
H 19.7164 38.148 36.2861
H 19.8147 37.3475 35.0049
Ow 27.9225 43.0648 25.6175
H 27.6816 42.1824 25.8995
H 27.0925 43.473 25.371
Ow 8.53014 9.18446 43.8573
H 8.41753 8.23969 43.962
H 9.46167 9.33444 44.0186
Ow 44.1 6.67488 9.7366
H 43.505 6.45438 10.4533
H 44.9536 6.77977 10.1569
Ow 23.8643 12.1154 47.0487
H 23.9601 11.194 46.8078
H 24.1623 12.1582 47.9573
Ow 6.36992 44.0507 2.77119
H 6.60952 44.6474 3.48022
H 5.76513 43.4284 3.17526
Ow 14.5105 19.1238 35.5253
H 14.0721 19.5483 36.2627
H 15.4186 19.0243 35.8111
Ow 10.6116 34.3222 1.85715
H 11.5146 34.2376 2.16322
H 10.0786 34.0486 2.60363
Ow 17.2536 24.9474 14.7937
H 17.5712 25.7499 14.3798
H 18.022 24.3781 14.8344
Ow 30.8618 31.2414 5.00751
H 29.9622 30.9958 5.22359
H 30.9512 32.1368 5.334
Ow 3.10641 23.0255 37.8631
H 3.10294 22.7242 36.9546
H 4.02834 23.0037 38.1196
Ow 34.0299 2.66948 45.3808
H 33.3508 2.30661 44.8122
H 33.7643 3.5782 45.5221
Ow 10.457 29.9724 3.9501
H 10.8612 29.4977 3.22379
H 9.80795 29.3638 4.30301
Ow 46.0901 41.4565 25.5295
H 45.3025 41.2008 25.0493
H 45.9602 41.1028 26.4094
Ow 2.38768 44.7302 13.0719
H 3.13957 44.9656 13.6155
H 2.57609 45.1218 12.2191
Ow 36.3177 39.8245 40.3626
H 36.3702 39.9893 41.304
H 36.1821 38.8796 40.2915
Ow 37.581 43.5911 27.1623
H 36.8642 43.1146 27.5811
H 37.8496 43.0298 26.435
Ow 12.1728 33.8982 32.1058
H 12.3833 34.4748 31.3714
H 12.1759 34.4733 32.871
Ow 0.463895 5.83828 40.2819
H 0.361042 6.68688 39.8512
H 51.4256 5.21999 39.7038
Ow 41.1848 35.0289 33.2227
H 40.3569 35.5038 33.2949
H 41.2339 34.7707 32.3023
Ow 29.4496 44.6283 49.3443
H 29.9561 44.3455 48.5829
H 29.8232 45.4777 49.5791
Ow 11.8353 39.7825 44.9661
H 11.4229 40.5849 45.2858
H 11.2474 39.4677 44.2794
Ow 21.4001 33.4186 5.43667
H 20.7799 33.3292 4.71308
H 21.9747 34.1373 5.17284
Ow 45.0134 30.8714 16.3594
H 45.1917 31.1535 15.4622
H 44.297 31.4356 16.6504
Ow 30.8672 32.4467 23.3371
H 31.3458 33.0184 22.7367
H 31.449 31.6985 23.471
Ow 8.96776 50.2578 34.8176
H 9.35375 49.6769 35.4731
H 8.68685 49.6727 34.1141
Ow 24.8276 19.4974 35.0491
H 24.0471 20.0193 35.2356
H 24.5682 18.5979 35.2491
Ow 47.1497 38.4789 40.8322
H 47.1215 38.615 39.8851
H 48.0573 38.2343 41.0126
Ow 9.97551 4.94344 24.1248
H 10.8151 4.77515 23.697
H 9.75391 4.11617 24.5523
Ow 19.2825 28.3115 3.35672
H 19.8585 28.6493 4.04256
H 19.5698 27.4079 3.2255
Ow 27.5998 15.59 4.08239
H 27.8299 15.9192 4.95125
H 26.6846 15.8444 3.96399
Ow 22.2697 3.50178 33.3192
H 23.1107 3.55496 33.7733
H 22.4725 3.72684 32.4113
Ow 24.5741 43.15 15.4676
H 23.7367 43.4666 15.1288
H 25.2049 43.825 15.2172
Ow 51.1152 12.8977 39.4807
H 50.287 13.1528 39.887
H 0.377169 13.1959 40.0951
Ow 35.1297 42.7459 28.1667
H 34.8821 43.6122 28.4899
H 34.7544 42.7015 27.2873
Ow 2.11049 6.76345 18.1526
H 1.30604 6.25495 18.05
H 1.97242 7.54236 17.6136
Ow 38.1941 0.292763 4.49494
H 37.9631 0.56614 3.60715
H 38.7548 50.9355 4.37196
Ow 39.1887 33.759 40.7859
H 38.7966 34.4854 41.2705
H 38.4425 33.2385 40.4884
Ow 16.0542 40.4839 24.0216
H 16.0249 39.9993 24.8466
H 15.6774 41.3384 24.2318
Ow 36.1561 9.64153 46.3097
H 36.9638 9.46133 46.7907
H 35.4645 9.57395 46.9681
Ow 14.4601 0.210038 24.5835
H 14.5445 0.651566 23.7385
H 13.5392 0.31928 24.8206
Ow 1.59661 5.1435 24.7531
H 1.76526 4.72875 23.9071
H 1.60808 4.42114 25.381
Ow 27.1501 11.159 12.1987
H 27.4702 11.2789 11.3046
H 26.6299 10.3563 12.1617
Ow 34.7646 30.0752 14.5421
H 33.9247 29.6713 14.3242
H 35.0015 29.695 15.3881
Ow 51.5362 30.0579 27.0403
H 50.8345 29.4106 27.1105