created by fftool

3072 atoms
2000 bonds
1000 angles
4 atom types
1 bond types
1 angle types
0.000000 31.868658 xlo xhi
0.000000 31.868658 ylo yhi
0.000000 31.868658 zlo zhi
Atoms

      1       1    1  -1.112800  1.748081e+01  4.967595e+00  3.036682e+01  # Ow water
      2       1    2   0.556400  1.745072e+01  4.583235e+00  2.949069e+01  # Hw water
      3       1    2   0.556400  1.714921e+01  5.857869e+00  3.024984e+01  # Hw water
      4       2    1  -1.112800  2.215000e+01  1.995706e+00  4.557341e+00  # Ow water
      5       2    2   0.556400  2.196338e+01  2.301952e+00  3.669864e+00  # Hw water
      6       2    2   0.556400  2.296456e+01  1.499987e+00  4.473840e+00  # Hw water
      7       3    1  -1.112800  3.012125e+01  1.639547e+01  2.076025e+01  # Ow water
      8       3    2   0.556400  2.995549e+01  1.725846e+01  2.113972e+01  # Hw water
      9       3    2   0.556400  3.036156e+01  1.657512e+01  1.985129e+01  # Hw water
     10       4    1  -1.112800  7.775331e+00  1.774409e+01  1.407498e+01  # Ow water
     11       4    2   0.556400  7.584640e+00  1.754298e+01  1.499118e+01  # Hw water
     12       4    2   0.556400  8.688584e+00  1.803078e+01  1.407726e+01  # Hw water
     13       5    1  -1.112800  1.887168e+01  7.617376e+00  1.068861e+01  # Ow water
     14       5    2   0.556400  1.831564e+01  7.785402e+00  1.144941e+01  # Hw water
     15       5    2   0.556400  1.933492e+01  8.442272e+00  1.054304e+01  # Hw water
     16       6    1  -1.112800  2.387457e+01  2.924131e+01  1.495871e+00  # Ow water
     17       6    2   0.556400  2.451036e+01  2.853759e+01  1.625370e+00  # Hw water
     18       6    2   0.556400  2.304175e+01  2.886854e+01  1.785151e+00  # Hw water
     19       7    1  -1.112800  1.027171e+01  1.500015e+00  1.778617e+01  # Ow water
     20       7    2   0.556400  1.107605e+01  1.644063e+00  1.728765e+01  # Hw water
     21       7    2   0.556400  9.577448e+00  1.501389e+00  1.712721e+01  # Hw water
     22       8    1  -1.112800  2.947353e+01  5.456680e+00  9.771665e+00  # Ow water
     23       8    2   0.556400  2.897753e+01  6.265264e+00  9.899715e+00  # Hw water
     24       8    2   0.556400  3.036943e+01  5.748776e+00  9.603531e+00  # Hw water
     25       9    1  -1.112800  1.540745e+00  1.848517e+01  9.593834e+00  # Ow water
     26       9    2   0.556400  1.507749e+00  1.925188e+01  1.016592e+01  # Hw water
     27       9    2   0.556400  2.461140e+00  1.822232e+01  9.597641e+00  # Hw water
     28      10    1  -1.112800  1.499885e+00  1.492431e+01  2.977088e+01  # Ow water
     29      10    2   0.556400  1.499877e+00  1.419876e+01  2.914654e+01  # Hw water
     30      10    2   0.556400  2.220736e+00  1.472644e+01  3.036876e+01  # Hw water
     31      11    1  -1.112800  2.224833e+01  1.904500e+01  1.958170e+00  # Ow water
     32      11    2   0.556400  2.262807e+01  1.829552e+01  1.499587e+00  # Hw water
     33      11    2   0.556400  2.193475e+01  1.868500e+01  2.787805e+00  # Hw water
     34      12    1  -1.112800  9.353450e+00  3.030601e+01  1.113921e+01  # Ow water
     35      12    2   0.556400  9.229653e+00  2.936736e+01  1.128004e+01  # Hw water
     36      12    2   0.556400  9.736543e+00  3.036895e+01  1.026428e+01  # Hw water
     37      13    1  -1.112800  1.816182e+00  1.991516e+01  2.114979e+01  # Ow water
     38      13    2   0.556400  1.499684e+00  1.914144e+01  2.068352e+01  # Hw water
     39      13    2   0.556400  1.949477e+00  2.057033e+01  2.046481e+01  # Hw water
     40      14    1  -1.112800  9.138680e+00  2.059159e+01  2.118279e+01  # Ow water
     41      14    2   0.556400  9.570217e+00  2.004937e+01  2.184310e+01  # Hw water
     42      14    2   0.556400  8.536155e+00  2.114324e+01  2.168166e+01  # Hw water
     43      15    1  -1.112800  1.503736e+00  2.140937e+00  2.166123e+01  # Ow water
     44      15    2   0.556400  2.238815e+00  1.878606e+00  2.221537e+01  # Hw water
     45      15    2   0.556400  1.500004e+00  1.501526e+00  2.094893e+01  # Hw water
     46      16    1  -1.112800  1.412430e+01  1.014064e+01  2.321365e+01  # Ow water
     47      16    2   0.556400  1.421238e+01  1.107511e+01  2.302596e+01  # Hw water
     48      16    2   0.556400  1.450336e+01  1.003433e+01  2.408614e+01  # Hw water
     49      17    1  -1.112800  1.115503e+01  2.533050e+01  2.745470e+01  # Ow water
     50      17    2   0.556400  1.040872e+01  2.511013e+01  2.801209e+01  # Hw water
     51      17    2   0.556400  1.192051e+01  2.505195e+01  2.795737e+01  # Hw water
     52      18    1  -1.112800  2.973278e+01  1.560122e+00  2.760015e+01  # Ow water
     53      18    2   0.556400  3.024594e+01  1.499783e+00  2.679439e+01  # Hw water
     54      18    2   0.556400  3.036962e+01  1.801507e+00  2.827275e+01  # Hw water
     55      19    1  -1.112800  1.908222e+01  1.436182e+01  3.391186e+00  # Ow water
     56      19    2   0.556400  1.999660e+01  1.444365e+01  3.662177e+00  # Hw water
     57      19    2   0.556400  1.897156e+01  1.343087e+01  3.198012e+00  # Hw water
     58      20    1  -1.112800  2.064013e+01  2.404260e+01  2.804928e+01  # Ow water
     59      20    2   0.556400  2.109387e+01  2.321039e+01  2.791592e+01  # Hw water
     60      20    2   0.556400  2.090747e+01  2.432419e+01  2.892419e+01  # Hw water
     61      21    1  -1.112800  4.360668e+00  2.362017e+00  1.286104e+01  # Ow water
     62      21    2   0.556400  3.980307e+00  1.499982e+00  1.302972e+01  # Hw water
     63      21    2   0.556400  3.864162e+00  2.701913e+00  1.211661e+01  # Hw water
     64      22    1  -1.112800  1.415378e+01  1.710443e+01  4.602278e+00  # Ow water
     65      22    2   0.556400  1.506114e+01  1.708542e+01  4.906520e+00  # Hw water
     66      22    2   0.556400  1.394394e+01  1.618932e+01  4.415850e+00  # Hw water
     67      23    1  -1.112800  4.916222e+00  2.122543e+01  3.037048e+01  # Ow water
     68      23    2   0.556400  4.194453e+00  2.167880e+01  2.993490e+01  # Hw water
     69      23    2   0.556400  5.082464e+00  2.045777e+01  2.982340e+01  # Hw water
     70      24    1  -1.112800  7.821463e+00  1.117852e+01  1.120286e+01  # Ow water
     71      24    2   0.556400  7.540697e+00  1.136918e+01  1.030785e+01  # Hw water
     72      24    2   0.556400  8.044608e+00  1.203320e+01  1.157159e+01  # Hw water
     73      25    1  -1.112800  2.217304e+01  2.957003e+01  2.030724e+01  # Ow water
     74      25    2   0.556400  2.128252e+01  2.987478e+01  2.013308e+01  # Hw water
     75      25    2   0.556400  2.267267e+01  3.036987e+01  2.047113e+01  # Hw water
     76      26    1  -1.112800  1.459700e+01  1.761455e+01  1.580895e+00  # Ow water
     77      26    2   0.556400  1.537030e+01  1.720930e+01  1.973351e+00  # Hw water
     78      26    2   0.556400  1.464223e+01  1.853116e+01  1.852930e+00  # Hw water
     79      27    1  -1.112800  1.392970e+01  3.016676e+01  1.688034e+01  # Ow water
     80      27    2   0.556400  1.413394e+01  2.923235e+01  1.691760e+01  # Hw water
     81      27    2   0.556400  1.331047e+01  3.030583e+01  1.759689e+01  # Hw water
     82      28    1  -1.112800  7.662407e+00  2.953120e+01  2.647381e+01  # Ow water
     83      28    2   0.556400  7.140760e+00  2.888938e+01  2.695566e+01  # Hw water
     84      28    2   0.556400  7.455060e+00  3.036876e+01  2.688820e+01  # Hw water
     85      29    1  -1.112800  2.859179e+01  8.404143e+00  2.085192e+00  # Ow water
     86      29    2   0.556400  2.845189e+01  9.148367e+00  1.499712e+00  # Hw water
     87      29    2   0.556400  2.873191e+01  7.660590e+00  1.498912e+00  # Hw water
     88      30    1  -1.112800  2.621336e+01  9.973869e+00  3.023762e+01  # Ow water
     89      30    2   0.556400  2.706259e+01  1.039543e+01  3.036923e+01  # Hw water
     90      30    2   0.556400  2.638600e+01  9.041140e+00  3.036585e+01  # Hw water
     91      31    1  -1.112800  3.036100e+01  8.333338e+00  1.014202e+01  # Ow water
     92      31    2   0.556400  2.990439e+01  8.604116e+00  9.345526e+00  # Hw water
     93      31    2   0.556400  3.033274e+01  9.104243e+00  1.070871e+01  # Hw water
     94      32    1  -1.112800  1.912071e+01  1.753380e+01  1.543800e+00  # Ow water
     95      32    2   0.556400  1.983734e+01  1.816713e+01  1.504193e+00  # Hw water
     96      32    2   0.556400  1.955353e+01  1.668907e+01  1.667580e+00  # Hw water
     97      33    1  -1.112800  5.340346e+00  1.701442e+01  1.984840e+01  # Ow water
     98      33    2   0.556400  5.843118e+00  1.760270e+01  1.928503e+01  # Hw water
     99      33    2   0.556400  5.827969e+00  1.699579e+01  2.067187e+01  # Hw water
    100      34    1  -1.112800  3.028981e+01  2.048124e+01  6.432688e+00  # Ow water
    101      34    2   0.556400  3.031941e+01  2.075656e+01  5.516418e+00  # Hw water
    102      34    2   0.556400  3.036917e+01  2.129496e+01  6.930469e+00  # Hw water
    103      35    1  -1.112800  1.204453e+01  8.736064e+00  1.176309e+01  # Ow water
    104      35    2   0.556400  1.208845e+01  9.006849e+00  1.268013e+01  # Hw water
    105      35    2   0.556400  1.112597e+01  8.854834e+00  1.152150e+01  # Hw water
    106      36    1  -1.112800  2.000613e+00  1.176538e+01  3.036882e+01  # Ow water
    107      36    2   0.556400  2.768453e+00  1.229636e+01  3.015739e+01  # Hw water
    108      36    2   0.556400  1.499961e+00  1.173215e+01  2.955366e+01  # Hw water
    109      37    1  -1.112800  1.591287e+01  1.078573e+01  2.092338e+01  # Ow water
    110      37    2   0.556400  1.534742e+01  1.002174e+01  2.103658e+01  # Hw water
    111      37    2   0.556400  1.605656e+01  1.084008e+01  1.997859e+01  # Hw water
    112      38    1  -1.112800  9.576282e+00  1.363654e+01  2.975755e+01  # Ow water
    113      38    2   0.556400  1.029997e+01  1.378951e+01  3.036510e+01  # Hw water
    114      38    2   0.556400  8.849439e+00  1.335896e+01  3.031511e+01  # Hw water
    115      39    1  -1.112800  1.037675e+01  1.791932e+01  2.289145e+01  # Ow water
    116      39    2   0.556400  9.669264e+00  1.729320e+01  2.273762e+01  # Hw water
    117      39    2   0.556400  1.117796e+01  1.740441e+01  2.279570e+01  # Hw water
    118      40    1  -1.112800  8.193773e+00  2.022231e+01  2.793032e+01  # Ow water
    119      40    2   0.556400  8.386234e+00  1.989275e+01  2.705249e+01  # Hw water
    120      40    2   0.556400  8.488489e+00  2.113288e+01  2.791478e+01  # Hw water
    121      41    1  -1.112800  1.139278e+01  1.462951e+01  1.474783e+01  # Ow water
    122      41    2   0.556400  1.045451e+01  1.451219e+01  1.459911e+01  # Hw water
    123      41    2   0.556400  1.179845e+01  1.386760e+01  1.433413e+01  # Hw water
    124      42    1  -1.112800  2.330744e+01  1.147642e+01  1.669265e+01  # Ow water
    125      42    2   0.556400  2.239928e+01  1.129145e+01  1.693195e+01  # Hw water
    126      42    2   0.556400  2.356619e+01  1.219475e+01  1.726995e+01  # Hw water
    127      43    1  -1.112800  1.621208e+00  2.785030e+01  1.452136e+01  # Ow water
    128      43    2   0.556400  1.724268e+00  2.858440e+01  1.391579e+01  # Hw water
    129      43    2   0.556400  1.499769e+00  2.708776e+01  1.395566e+01  # Hw water
    130      44    1  -1.112800  1.649532e+00  1.193427e+01  8.907661e+00  # Ow water
    131      44    2   0.556400  1.499979e+00  1.099079e+01  8.846736e+00  # Hw water
    132      44    2   0.556400  1.532448e+00  1.225407e+01  8.013097e+00  # Hw water
    133      45    1  -1.112800  1.638098e+00  2.733435e+01  2.019407e+01  # Ow water
    134      45    2   0.556400  1.499072e+00  2.736203e+01  2.114071e+01  # Hw water
    135      45    2   0.556400  2.578638e+00  2.718751e+01  2.009382e+01  # Hw water
    136      46    1  -1.112800  1.631126e+00  4.402852e+00  2.379232e+01  # Ow water
    137      46    2   0.556400  1.499798e+00  4.345789e+00  2.284589e+01  # Hw water
    138      46    2   0.556400  2.123890e+00  3.612829e+00  2.401430e+01  # Hw water
    139      47    1  -1.112800  1.254359e+01  1.756244e+01  6.893489e+00  # Ow water
    140      47    2   0.556400  1.268342e+01  1.826460e+01  6.258162e+00  # Hw water
    141      47    2   0.556400  1.238770e+01  1.678334e+01  6.359695e+00  # Hw water
    142      48    1  -1.112800  1.289965e+01  7.963705e+00  2.310978e+01  # Ow water
    143      48    2   0.556400  1.240336e+01  7.159004e+00  2.296016e+01  # Hw water
    144      48    2   0.556400  1.356670e+01  7.718559e+00  2.375101e+01  # Hw water
    145      49    1  -1.112800  1.831315e+01  2.159480e+01  1.595356e+01  # Ow water
    146      49    2   0.556400  1.809086e+01  2.074572e+01  1.557163e+01  # Hw water
    147      49    2   0.556400  1.856419e+01  2.213625e+01  1.520520e+01  # Hw water
    148      50    1  -1.112800  6.213033e+00  3.922078e+00  2.431499e+01  # Ow water
    149      50    2   0.556400  6.593834e+00  3.062199e+00  2.449339e+01  # Hw water
    150      50    2   0.556400  5.758168e+00  3.814484e+00  2.347967e+01  # Hw water
    151      51    1  -1.112800  8.405445e+00  2.133109e+01  1.882247e+01  # Ow water
    152      51    2   0.556400  8.009597e+00  2.046002e+01  1.885031e+01  # Hw water
    153      51    2   0.556400  9.346005e+00  2.116534e+01  1.875843e+01  # Hw water
    154      52    1  -1.112800  5.289459e+00  2.120756e+01  1.968278e+01  # Ow water
    155      52    2   0.556400  5.734549e+00  2.149572e+01  1.888586e+01  # Hw water
    156      52    2   0.556400  4.362306e+00  2.137505e+01  1.951377e+01  # Hw water
    157      53    1  -1.112800  2.038091e+01  1.946105e+01  4.585877e+00  # Ow water
    158      53    2   0.556400  2.052629e+01  2.028514e+01  4.121158e+00  # Hw water
    159      53    2   0.556400  1.971096e+01  1.966793e+01  5.237489e+00  # Hw water
    160      54    1  -1.112800  2.410236e+00  2.277335e+01  1.881799e+01  # Ow water
    161      54    2   0.556400  1.498713e+00  2.252868e+01  1.897766e+01  # Hw water
    162      54    2   0.556400  2.674831e+00  2.324275e+01  1.960912e+01  # Hw water
    163      55    1  -1.112800  2.336009e+01  1.524438e+01  1.683216e+01  # Ow water
    164      55    2   0.556400  2.352592e+01  1.470501e+01  1.760534e+01  # Hw water
    165      55    2   0.556400  2.240590e+01  1.528936e+01  1.677108e+01  # Hw water
    166      56    1  -1.112800  2.552866e+01  4.260769e+00  1.359808e+01  # Ow water
    167      56    2   0.556400  2.544878e+01  4.425512e+00  1.265856e+01  # Hw water
    168      56    2   0.556400  2.504431e+01  3.447659e+00  1.374119e+01  # Hw water
    169      57    1  -1.112800  1.725960e+01  1.296223e+01  1.102941e+01  # Ow water
    170      57    2   0.556400  1.781638e+01  1.371144e+01  1.124133e+01  # Hw water
    171      57    2   0.556400  1.648589e+01  1.334706e+01  1.061770e+01  # Hw water
    172      58    1  -1.112800  2.141550e+01  2.996773e+01  2.759578e+01  # Ow water
    173      58    2   0.556400  2.097579e+01  2.927783e+01  2.809270e+01  # Hw water
    174      58    2   0.556400  2.206259e+01  3.032594e+01  2.820339e+01  # Hw water
    175      59    1  -1.112800  1.031937e+01  1.813050e+01  7.883515e+00  # Ow water
    176      59    2   0.556400  1.068192e+01  1.872625e+01  8.539168e+00  # Hw water
    177      59    2   0.556400  1.028919e+01  1.728034e+01  8.322315e+00  # Hw water
    178      60    1  -1.112800  2.350782e+00  1.130343e+01  1.957530e+01  # Ow water
    179      60    2   0.556400  2.405429e+00  1.136595e+01  2.052889e+01  # Hw water
    180      60    2   0.556400  1.508684e+00  1.170247e+01  1.935650e+01  # Hw water
    181      61    1  -1.112800  2.133246e+01  1.221400e+01  2.884537e+01  # Ow water
    182      61    2   0.556400  2.050382e+01  1.239498e+01  2.840171e+01  # Hw water
    183      61    2   0.556400  2.128136e+01  1.271151e+01  2.966153e+01  # Hw water
    184      62    1  -1.112800  1.703116e+01  2.900947e+01  2.224766e+01  # Ow water
    185      62    2   0.556400  1.668596e+01  2.963932e+01  2.161493e+01  # Hw water
    186      62    2   0.556400  1.751542e+01  2.837699e+01  2.171692e+01  # Hw water
    187      63    1  -1.112800  4.736362e+00  2.164069e+01  2.374342e+00  # Ow water
    188      63    2   0.556400  4.881327e+00  2.127677e+01  1.500971e+00  # Hw water
    189      63    2   0.556400  4.715229e+00  2.087760e+01  2.951823e+00  # Hw water
    190      64    1  -1.112800  3.025259e+01  1.070059e+01  2.272803e+00  # Ow water
    191      64    2   0.556400  3.036545e+01  1.134691e+01  2.969768e+00  # Hw water
    192      64    2   0.556400  2.990610e+01  1.120176e+01  1.534559e+00  # Hw water
    193      65    1  -1.112800  3.008200e+01  8.144370e+00  5.967167e+00  # Ow water
    194      65    2   0.556400  3.037490e+01  8.586901e+00  5.170544e+00  # Hw water
    195      65    2   0.556400  3.036127e+01  8.720844e+00  6.678445e+00  # Hw water
    196      66    1  -1.112800  2.670288e+01  2.411781e+01  9.395729e+00  # Ow water
    197      66    2   0.556400  2.690556e+01  2.319187e+01  9.262330e+00  # Hw water
    198      66    2   0.556400  2.624901e+01  2.414521e+01  1.023803e+01  # Hw water
    199      67    1  -1.112800  6.888154e+00  1.202907e+01  2.506867e+01  # Ow water
    200      67    2   0.556400  7.478707e+00  1.163263e+01  2.442812e+01  # Hw water
    201      67    2   0.556400  6.010846e+00  1.183056e+01  2.474133e+01  # Hw water
    202      68    1  -1.112800  1.971379e+01  1.015619e+01  8.202558e+00  # Ow water
    203      68    2   0.556400  1.997715e+01  9.337599e+00  7.782110e+00  # Hw water
    204      68    2   0.556400  1.982906e+01  1.082208e+01  7.524667e+00  # Hw water
    205      69    1  -1.112800  2.972292e+01  6.592064e+00  1.595468e+01  # Ow water
    206      69    2   0.556400  2.888592e+01  6.396825e+00  1.637604e+01  # Hw water
    207      69    2   0.556400  3.036997e+01  6.505544e+00  1.665473e+01  # Hw water
    208      70    1  -1.112800  1.792615e+01  1.700024e+00  1.462255e+01  # Ow water
    209      70    2   0.556400  1.699032e+01  1.499980e+00  1.460190e+01  # Hw water
    210      70    2   0.556400  1.819466e+01  1.499648e+00  1.551920e+01  # Hw water
    211      71    1  -1.112800  2.932556e+01  3.224234e+00  1.088619e+01  # Ow water
    212      71    2   0.556400  2.893627e+01  3.788504e+00  1.155424e+01  # Hw water
    213      71    2   0.556400  3.026535e+01  3.396244e+00  1.094468e+01  # Hw water
    214      72    1  -1.112800  3.025867e+01  1.754098e+01  7.970061e+00  # Ow water
    215      72    2   0.556400  3.014975e+01  1.666198e+01  7.607128e+00  # Hw water
    216      72    2   0.556400  3.036943e+01  1.810471e+01  7.204446e+00  # Hw water
    217      73    1  -1.112800  2.208140e+01  3.017106e+01  5.644006e+00  # Ow water
    218      73    2   0.556400  2.123975e+01  3.036872e+01  6.054848e+00  # Hw water
    219      73    2   0.556400  2.272804e+01  3.033602e+01  6.330209e+00  # Hw water
    220      74    1  -1.112800  2.369954e+00  1.707744e+00  7.958422e+00  # Ow water
    221      74    2   0.556400  2.940696e+00  1.712462e+00  8.726836e+00  # Hw water
    222      74    2   0.556400  1.501952e+00  1.501894e+00  8.305446e+00  # Hw water
    223      75    1  -1.112800  4.223276e+00  1.551063e+01  9.402897e+00  # Ow water
    224      75    2   0.556400  3.958030e+00  1.534517e+01  1.030761e+01  # Hw water
    225      75    2   0.556400  5.175430e+00  1.541277e+01  9.410242e+00  # Hw water
    226      76    1  -1.112800  4.392781e+00  1.031111e+01  2.861134e+01  # Ow water
    227      76    2   0.556400  4.372197e+00  1.126544e+01  2.854024e+01  # Hw water
    228      76    2   0.556400  3.981165e+00  1.012438e+01  2.945510e+01  # Hw water
    229      77    1  -1.112800  1.786720e+01  2.714856e+01  1.679859e+01  # Ow water
    230      77    2   0.556400  1.866292e+01  2.734086e+01  1.729466e+01  # Hw water
    231      77    2   0.556400  1.755742e+01  2.631601e+01  1.715515e+01  # Hw water
    232      78    1  -1.112800  7.890046e+00  1.397275e+01  6.376177e+00  # Ow water
    233      78    2   0.556400  7.600879e+00  1.403206e+01  7.286723e+00  # Hw water
    234      78    2   0.556400  7.593329e+00  1.311026e+01  6.085846e+00  # Hw water
    235      79    1  -1.112800  4.206354e+00  7.159743e+00  1.652303e+01  # Ow water
    236      79    2   0.556400  3.761567e+00  6.656633e+00  1.584092e+01  # Hw water
    237      79    2   0.556400  4.170053e+00  8.065449e+00  1.621545e+01  # Hw water
    238      80    1  -1.112800  2.555929e+01  8.352182e+00  1.498170e+00  # Ow water
    239      80    2   0.556400  2.512882e+01  8.266954e+00  2.348854e+00  # Hw water
    240      80    2   0.556400  2.623206e+01  7.671302e+00  1.500358e+00  # Hw water
    241      81    1  -1.112800  8.108467e+00  3.036898e+01  1.974965e+01  # Ow water
    242      81    2   0.556400  7.721050e+00  2.949503e+01  1.979816e+01  # Hw water
    243      81    2   0.556400  8.778698e+00  3.029700e+01  1.907006e+01  # Hw water
    244      82    1  -1.112800  4.750991e+00  2.423852e+01  2.317261e+01  # Ow water
    245      82    2   0.556400  4.407688e+00  2.352070e+01  2.370469e+01  # Hw water
    246      82    2   0.556400  4.054437e+00  2.489504e+01  2.317715e+01  # Hw water
    247      83    1  -1.112800  2.026824e+00  9.784881e+00  1.338960e+01  # Ow water
    248      83    2   0.556400  1.521393e+00  9.004065e+00  1.316356e+01  # Hw water
    249      83    2   0.556400  1.499981e+00  1.051451e+01  1.306354e+01  # Hw water
    250      84    1  -1.112800  2.104934e+01  2.319492e+01  1.111222e+01  # Ow water
    251      84    2   0.556400  2.117363e+01  2.244886e+01  1.052555e+01  # Hw water
    252      84    2   0.556400  2.012942e+01  2.314525e+01  1.137206e+01  # Hw water
    253      85    1  -1.112800  2.858301e+01  1.032332e+01  5.025043e+00  # Ow water
    254      85    2   0.556400  2.824001e+01  9.821825e+00  5.764690e+00  # Hw water
    255      85    2   0.556400  2.930305e+01  1.083425e+01  5.394800e+00  # Hw water
    256      86    1  -1.112800  1.314853e+01  9.595419e+00  4.810827e+00  # Ow water
    257      86    2   0.556400  1.319493e+01  9.951340e+00  5.698180e+00  # Hw water
    258      86    2   0.556400  1.335591e+01  1.033782e+01  4.243322e+00  # Hw water
    259      87    1  -1.112800  2.601654e+01  1.947027e+01  6.368139e+00  # Ow water
    260      87    2   0.556400  2.525864e+01  1.932102e+01  5.802860e+00  # Hw water
    261      87    2   0.556400  2.674341e+01  1.961374e+01  5.762083e+00  # Hw water
    262      88    1  -1.112800  5.877833e+00  9.012993e+00  2.428481e+01  # Ow water
    263      88    2   0.556400  5.025933e+00  9.014402e+00  2.472127e+01  # Hw water
    264      88    2   0.556400  5.858797e+00  8.237642e+00  2.372383e+01  # Hw water
    265      89    1  -1.112800  2.033415e+01  1.536341e+01  2.783045e+01  # Ow water
    266      89    2   0.556400  2.055047e+01  1.607404e+01  2.722676e+01  # Hw water
    267      89    2   0.556400  1.986580e+01  1.579153e+01  2.854710e+01  # Hw water
    268      90    1  -1.112800  1.255400e+01  2.074564e+01  4.234617e+00  # Ow water
    269      90    2   0.556400  1.201855e+01  2.020247e+01  4.812966e+00  # Hw water
    270      90    2   0.556400  1.299803e+01  2.135678e+01  4.822476e+00  # Hw water
    271      91    1  -1.112800  1.576251e+01  2.448928e+01  4.564842e+00  # Ow water
    272      91    2   0.556400  1.604514e+01  2.518577e+01  3.972167e+00  # Hw water
    273      91    2   0.556400  1.632169e+01  2.374450e+01  4.343853e+00  # Hw water
    274      92    1  -1.112800  2.320763e+01  3.015463e+01  1.229988e+01  # Ow water
    275      92    2   0.556400  2.310620e+01  2.957638e+01  1.154385e+01  # Hw water
    276      92    2   0.556400  2.414035e+01  3.036922e+01  1.231446e+01  # Hw water
    277      93    1  -1.112800  2.186651e+01  6.597571e+00  2.084065e+01  # Ow water
    278      93    2   0.556400  2.226746e+01  7.466502e+00  2.082009e+01  # Hw water
    279      93    2   0.556400  2.202407e+01  6.239832e+00  1.996691e+01  # Hw water
    280      94    1  -1.112800  2.571996e+01  2.785054e+01  1.244449e+01  # Ow water
    281      94    2   0.556400  2.661066e+01  2.791418e+01  1.209978e+01  # Hw water
    282      94    2   0.556400  2.583077e+01  2.783952e+01  1.339519e+01  # Hw water
    283      95    1  -1.112800  1.055835e+01  1.115449e+01  2.244097e+00  # Ow water
    284      95    2   0.556400  9.984649e+00  1.097168e+01  1.499998e+00  # Hw water
    285      95    2   0.556400  1.117123e+01  1.181364e+01  1.918345e+00  # Hw water
    286      96    1  -1.112800  1.402233e+01  9.229574e+00  2.698511e+01  # Ow water
    287      96    2   0.556400  1.403606e+01  8.571056e+00  2.629057e+01  # Hw water
    288      96    2   0.556400  1.440621e+01  1.000936e+01  2.658411e+01  # Hw water
    289      97    1  -1.112800  8.436841e+00  2.648956e+01  1.078810e+01  # Ow water
    290      97    2   0.556400  7.695984e+00  2.599094e+01  1.044352e+01  # Hw water
    291      97    2   0.556400  8.037432e+00  2.716428e+01  1.133715e+01  # Hw water
    292      98    1  -1.112800  2.714067e+01  3.036899e+01  2.679211e+01  # Ow water
    293      98    2   0.556400  2.656967e+01  3.037307e+01  2.602388e+01  # Hw water
    294      98    2   0.556400  2.802373e+01  3.027740e+01  2.643430e+01  # Hw water
    295      99    1  -1.112800  2.743519e+01  3.748481e+00  7.146133e+00  # Ow water
    296      99    2   0.556400  2.736779e+01  4.653052e+00  7.451810e+00  # Hw water
    297      99    2   0.556400  2.837626e+01  3.588831e+00  7.074543e+00  # Hw water
    298     100    1  -1.112800  1.383606e+01  2.298061e+01  2.041171e+01  # Ow water
    299     100    2   0.556400  1.460082e+01  2.305835e+01  2.098208e+01  # Hw water
    300     100    2   0.556400  1.407421e+01  2.346822e+01  1.962320e+01  # Hw water
    301     101    1  -1.112800  1.931787e+01  2.642893e+01  2.608877e+01  # Ow water
    302     101    2   0.556400  1.922540e+01  2.681748e+01  2.695866e+01  # Hw water
    303     101    2   0.556400  1.857947e+01  2.582416e+01  2.601634e+01  # Hw water
    304     102    1  -1.112800  6.426806e+00  2.550114e+01  7.187144e+00  # Ow water
    305     102    2   0.556400  5.939458e+00  2.488128e+01  6.644464e+00  # Hw water
    306     102    2   0.556400  6.405814e+00  2.511981e+01  8.064855e+00  # Hw water
    307     103    1  -1.112800  1.714458e+01  1.521885e+01  1.683597e+01  # Ow water
    308     103    2   0.556400  1.739903e+01  1.540611e+01  1.773953e+01  # Hw water
    309     103    2   0.556400  1.633954e+01  1.571973e+01  1.670463e+01  # Hw water
    310     104    1  -1.112800  1.817025e+01  4.053811e+00  1.380542e+01  # Ow water
    311     104    2   0.556400  1.898241e+01  4.544824e+00  1.392999e+01  # Hw water
    312     104    2   0.556400  1.768171e+01  4.188007e+00  1.461755e+01  # Hw water
    313     105    1  -1.112800  2.557130e+01  2.216296e+00  2.954311e+01  # Ow water
    314     105    2   0.556400  2.541312e+01  1.497237e+00  2.893142e+01  # Hw water
    315     105    2   0.556400  2.573519e+01  1.785893e+00  3.038223e+01  # Hw water
    316     106    1  -1.112800  1.063014e+01  1.776522e+01  2.566463e+01  # Ow water
    317     106    2   0.556400  1.103216e+01  1.745689e+01  2.647675e+01  # Hw water
    318     106    2   0.556400  1.017531e+01  1.857015e+01  2.591251e+01  # Hw water
    319     107    1  -1.112800  7.317935e+00  2.173253e+01  4.164446e+00  # Ow water
    320     107    2   0.556400  6.517892e+00  2.223870e+01  4.023183e+00  # Hw water
    321     107    2   0.556400  7.026757e+00  2.082074e+01  4.172595e+00  # Hw water
    322     108    1  -1.112800  1.743520e+01  6.180968e+00  9.220698e+00  # Ow water
    323     108    2   0.556400  1.753286e+01  6.965310e+00  8.680791e+00  # Hw water
    324     108    2   0.556400  1.655101e+01  6.246496e+00  9.581438e+00  # Hw water
    325     109    1  -1.112800  2.733580e+01  1.323892e+01  2.290797e+01  # Ow water
    326     109    2   0.556400  2.669531e+01  1.378405e+01  2.245098e+01  # Hw water
    327     109    2   0.556400  2.680777e+01  1.262526e+01  2.341869e+01  # Hw water
    328     110    1  -1.112800  2.410917e+01  3.034787e+01  2.254949e+01  # Ow water
    329     110    2   0.556400  2.492566e+01  3.036981e+01  2.304858e+01  # Hw water
    330     110    2   0.556400  2.394319e+01  2.941683e+01  2.240168e+01  # Hw water
    331     111    1  -1.112800  2.941578e+01  1.191406e+01  1.142063e+01  # Ow water
    332     111    2   0.556400  2.894947e+01  1.107986e+01  1.136692e+01  # Hw water
    333     111    2   0.556400  3.032205e+01  1.167067e+01  1.160947e+01  # Hw water
    334     112    1  -1.112800  1.685206e+01  2.676137e+01  2.157197e+00  # Ow water
    335     112    2   0.556400  1.749185e+01  2.613770e+01  1.813801e+00  # Hw water
    336     112    2   0.556400  1.681774e+01  2.745639e+01  1.499933e+00  # Hw water
    337     113    1  -1.112800  4.800280e+00  9.092414e+00  1.324253e+01  # Ow water
    338     113    2   0.556400  5.227777e+00  9.772994e+00  1.376242e+01  # Hw water
    339     113    2   0.556400  5.476016e+00  8.426151e+00  1.311722e+01  # Hw water
    340     114    1  -1.112800  1.536915e+00  1.927717e+01  2.493787e+01  # Ow water
    341     114    2   0.556400  1.499965e+00  1.969081e+01  2.407545e+01  # Hw water
    342     114    2   0.556400  1.500059e+00  1.833824e+01  2.475547e+01  # Hw water
    343     115    1  -1.112800  1.501725e+01  2.749468e+01  2.208582e+01  # Ow water
    344     115    2   0.556400  1.561172e+01  2.676734e+01  2.190198e+01  # Hw water
    345     115    2   0.556400  1.458504e+01  2.766860e+01  2.124965e+01  # Hw water
    346     116    1  -1.112800  1.984740e+01  2.280766e+00  2.723148e+01  # Ow water