3036
Atoms. Timestep: 0
O 11.9613 22.2894 3.64794
H 11.4384 21.925 4.36209
H 12.6033 21.608 3.44867
O 21.2756 24.0337 14.2923
H 20.667 24.6802 14.65
H 21.3911 23.397 14.9976
O 3.03012 23.9191 9.25173
H 3.76779 23.7016 9.82162
H 2.30685 24.0973 9.85285
O 29.5131 1.03132 9.64826
H 29.7597 1.62822 10.3548
H 30.0978 31.5603 9.75327
O 19.8531 8.78276 17.1668
H 20.5999 9.3774 17.2372
H 19.8567 8.29445 17.99
O 7.45449 27.9816 14.394
H 6.92616 28.2138 13.6304
H 8.22632 28.5443 14.332
O 7.16093 9.16888 2.0671
H 7.79236 8.94337 1.38396
H 7.63488 9.03049 2.88713
O 21.4693 11.1273 30.1651
H 22.172 11.4312 30.7396
H 21.3333 11.8481 29.5503
O 19.535 16.1696 5.697
H 18.7494 15.8647 6.15104
H 19.4363 17.121 5.65921
O 3.2612 3.71652 29.7928
H 2.31912 3.76062 29.6292
H 3.37799 2.91923 30.3094
O 10.9485 14.2097 24.0319
H 10.6458 15.0856 24.2711
H 10.7404 13.6676 24.7929
O 13.5715 8.07457 2.47297
H 13.3905 9.0035 2.61623
H 12.7385 7.63761 2.64985
O 20.5126 6.45309 11.8846
H 20.0948 6.94532 11.1779
H 20.704 7.10996 12.554
O 5.91851 19.0574 3.39621
H 6.26204 19.9448 3.49983
H 5.77122 18.9655 2.45489
O 21.1587 18.78 1.83699
H 20.4809 18.1435 2.06461
H 20.8568 19.6012 2.22532
O 23.6557 21.8718 0.670204
H 24.2787 22.1903 31.2967
H 23.0191 21.3641 31.4465
O 25.5005 10.1848 3.62341
H 25.4535 11.096 3.91278
H 26.3079 10.1368 3.11164
O 30.3198 21.372 13.5398
H 30.6314 20.6394 14.0712
H 31.0697 21.9643 13.4843
O 26.9512 16.1381 10.488
H 26.8585 16.9043 11.0542
H 26.06 15.8026 10.3905
O 31.7381 28.918 13.0486
H 1.11379 28.3175 12.6934
H 30.9102 28.4441 12.9692
O 6.6021 0.792464 5.28591
H 6.8144 31.1391 5.25794
H 5.91682 0.902508 4.62674
O 1.00894 31.5433 18.1107
H 1.27877 30.6382 18.266
H 1.72158 0.641594 17.5954
O 23.3324 28.313 23.0477
H 23.155 29.2413 22.8958
H 23.8475 28.296 23.8543
O 28.6218 2.83933 19.5643
H 29.0059 2.04824 19.1863
H 28.1315 3.23573 18.8441
O 29.0728 19.5863 27.3506
H 29.7457 20.0665 26.8679
H 29.5081 19.3078 28.1563
O 13.9196 26.5095 19.0101
H 14.0049 26.66 18.0686
H 13.4952 27.3006 19.3421
O 14.3243 30.4686 24.6663
H 14.283 29.6052 25.0776
H 13.621 30.9667 25.0829
O 27.4302 8.05302 12.6366
H 27.7845 8.85314 12.2487
H 28.1563 7.43004 12.6071
O 18.3658 30.937 14.7954
H 18.4333 31.1431 13.8631
H 18.4953 31.7765 15.2367
O 23.6335 30.4768 9.23368
H 23.9128 30.6029 10.1405
H 23.6376 31.3566 8.85671
O 6.96172 20.7285 8.5485
H 7.37724 19.9616 8.1543
H 7.12021 20.6313 9.48746
O 22.8043 16.7013 28.3202
H 23.7162 16.7913 28.0434
H 22.4923 15.9179 27.8672
O 26.8694 2.61066 8.72629
H 26.7013 1.73939 9.08524
H 27.7681 2.56633 8.39968
O 15.6751 15.2936 29.231
H 15.8488 14.3706 29.0458
H 14.8751 15.2866 29.7565
O 12.8065 15.1458 20.1285
H 13.5713 15.7095 20.0119
H 12.695 14.7144 19.2813
O 15.5408 10.3115 26.4671
H 16.3088 9.79091 26.7024
H 14.7962 9.78842 26.7639
O 13.256 15.5347 30.6125
H 13.3251 16.3109 31.1684
H 12.9141 14.8541 31.1921
O 7.88255 18.6745 20.452
H 6.92921 18.6065 20.5045
H 8.06649 19.5995 20.6157
O 28.1845 15.402 3.58795
H 28.712 16.2007 3.59614
H 28.4803 14.9112 4.35468
O 25.5596 26.3009 27.0139
H 24.8616 26.2938 27.6689
H 25.2275 26.8648 26.3153
O 9.81547 6.31855 13.094
H 10.1508 6.78309 12.3272
H 8.88989 6.55918 13.1345
O 30.8984 16.1892 26.9564
H 31.1229 16.9164 27.5369
H 31.1156 16.5061 26.0797
O 1.97627 6.10311 1.74451
H 1.42905 5.46855 2.20724
H 2.82303 5.66668 1.65094
O 18.155 12.9436 10.9932
H 17.6588 12.5175 10.2944
H 18.8789 12.3439 11.1736
O 4.50881 26.8411 6.34892
H 3.84697 26.8097 5.65812
H 4.20343 27.5268 6.94284
O 1.05764 22.1587 28.4948
H 31.5045 22.2836 28.0395
H 0.928086 22.5705 29.3492
O 23.5189 3.02159 31.297
H 24.2421 2.95657 0.641176
H 23.7288 3.78941 30.7654
O 12.1749 13.2852 21.8353
H 12.2831 13.9671 21.1723
H 11.656 13.7004 22.5242
O 2.61136 18.7099 9.25834
H 2.35071 18.0982 9.94692
H 3.52986 18.5016 9.08742
O 29.0952 6.09537 10.2447
H 28.426 6.59363 9.7755
H 28.6085 5.60345 10.906
O 23.0822 15.3021 13.7564
H 23.9401 15.606 14.053
H 23.2726 14.5329 13.2193
O 5.78206 15.7361 2.15276
H 5.76828 15.2012 2.94642
H 6.71121 15.8954 1.98681
O 28.6352 6.8431 28.2126
H 29.5144 7.12066 27.9552
H 28.0916 7.02709 27.4465
O 13.7885 13.7167 26.3648
H 14.6513 13.5667 26.7512
H 13.5427 14.5936 26.6597
O 13.8914 18.2569 29.1001
H 13.6683 17.3722 28.8104
H 14.6607 18.4923 28.5815
O 24.5461 30.9269 11.7014
H 25.3913 31.2716 11.4132
H 24.4393 31.2653 12.5904
O 14.5311 2.07311 7.50897
H 14.9639 2.68513 6.91368
H 13.6978 1.87245 7.08278
O 4.29041 5.97238 26.7617
H 5.13937 6.38646 26.9167
H 4.50558 5.09743 26.4386
O 30.1932 9.77733 29.6681
H 30.348 8.83491 29.7322
H 30.978 10.1756 30.0446
O 30.1498 18.2964 12.4557
H 30.009 18.7118 11.6049
H 29.9862 18.9921 13.0925
O 27.2676 31.0667 22.0889
H 27.1594 30.5727 21.2762
H 26.8173 0.616254 21.9275
O 7.21913 2.25249 31.8047
H 6.6181 1.56221 31.5246
H 6.67396 2.8542 1.0321
O 8.0785 22.0742 28.1906
H 8.88089 22.3725 27.7624
H 8.24064 22.2086 29.1244
O 26.3153 16.9052 18.2613
H 25.6897 16.8289 18.9818
H 25.8446 16.5698 17.4983
O 30.9595 15.6098 12.7131
H 30.1288 15.1355 12.7497
H 30.7074 16.532 12.6664
O 5.34292 27.8634 21.5228
H 6.04406 27.3523 21.9271
H 5.75217 28.2701 20.7591
O 31.0358 25.1084 24.7847
H 31.0111 26.0449 24.5881
H 0.665079 24.8537 24.6257
O 11.1426 20.6012 21.6964
H 11.1277 19.6651 21.4969
H 11.676 20.9863 21.0011
O 15.5848 19.5513 15.5954
H 15.2163 18.6711 15.5196
H 15.3969 19.8134 16.4966
O 26.0012 7.02636 4.81326
H 25.703 7.0283 3.90369
H 25.2264 7.2688 5.32033
O 11.362 4.30248 5.19581
H 11.4466 4.9718 4.51677
H 10.5611 3.8301 4.96874
O 14.8412 18.8318 8.13366
H 14.1903 18.9562 8.82443
H 15.6643 18.6921 8.60182
O 23.378 10.8981 19.9656
H 22.6802 10.2527 20.0783
H 23.3479 11.4259 20.7636
O 3.21447 9.11571 11.0943
H 3.32589 10.0097 10.7708
H 3.49692 9.15417 12.008
O 9.33801 26.2817 10.5056
H 9.76648 26.3929 11.3543
H 10.039 25.9997 9.91798
O 1.5184 25.104 5.23736
H 1.76111 24.3682 5.79939
H 0.952441 24.7186 4.56848
O 3.42714 21.2044 14.2246
H 3.23419 20.5474 14.8934
H 3.36574 20.7288 13.3962
O 2.87511 12.4517 22.2177
H 3.7343 12.0636 22.3832
H 2.29078 11.702 22.1051
O 17.4164 28.7543 19.0837
H 18.1289 29.2301 19.5105
H 17.1232 29.3381 18.3841
O 29.5807 14.4919 20.8674
H 29.71 14.9221 21.7126
H 30.3081 13.8735 20.799
O 3.33733 3.31515 7.27802
H 2.6708 3.91192 7.61836
H 2.8733 2.77833 6.63558
O 24.1811 22.4001 27.6666
H 24.236 21.6097 27.1294
H 24.525 22.1349 28.5196
O 21.8875 20.0277 10.0968
H 21.2234 19.5607 9.58976
H 22.0043 20.8569 9.63303
O 3.42489 28.7422 8.04469
H 4.05575 29.4504 8.1741
H 3.67208 28.0797 8.68986
O 22.4522 31.8181 4.65952
H 21.8751 31.1536 4.28322
H 22.0547 1.37209 4.4077
O 27.5509 16.9247 14.0892
H 28.13 17.3176 14.7422
H 26.9853 16.3384 14.5919
O 7.28112 11.8909 24.7481
H 6.51736 12.0914 25.2891
H 7.07429 11.0483 24.3438
O 13.0058 7.83676 30.5133
H 13.1019 7.82481 31.4656
H 13.4885 7.06636 30.2137
O 26.0045 21.6966 30.321
H 25.6445 20.8107 30.3632
H 26.5915 21.7532 31.0751
O 30.9392 10.6834 19.6475
H 31.0759 9.77081 19.3933
H 30.0204 10.7235 19.9131
O 5.06966 13.4288 15.201
H 5.04248 12.4789 15.3154
H 5.99804 13.6521 15.2679
O 14.1887 2.26045 22.004
H 14.1611 1.37003 21.6538
H 13.3117 2.6088 21.8434
O 27.9372 29.8354 29.0925
H 27.3496 29.7347 29.8414
H 27.8656 29.007 28.6182
O 16.2166 11.0054 16.2727
H 16.9593 11.4695 15.8863
H 16.5824 10.5623 17.0382
O 13.413 12.3427 0.782514
H 14.2163 12.6886 31.6732
H 12.938 11.9552 31.3269
O 27.5078 2.07496 24.0368
H 27.4336 2.94171 24.4361
H 26.6191 1.72067 24.0653
O 0.67833 28.0173 8.95194
H 31.3132 27.3553 9.2015
H 0.992764 27.7345 8.09325
O 17.9845 2.67138 24.2122
H 17.1012 2.3876 24.448
H 18.5522 1.95976 24.5081
O 31.1728 23.0796 30.8249
H 31.544 23.9089 31.126
H 30.4527 23.3344 30.2481
O 15.9974 29.5048 3.98063
H 16.4917 28.8284 3.51761
H 16.2436 30.3215 3.54648
O 15.9394 11.5657 12.1541
H 15.9072 11.1421 11.2964
H 16.7807 12.0221 12.1649
O 29.4357 6.97485 23.0811
H 29.3154 6.98098 22.1315
H 30.184 6.39545 23.2244
O 31.4503 27.5453 5.99435
H 31.8801 26.724 5.75568
H 31.1146 27.8898 5.16677
O 4.28098 11.5239 26.0912
H 4.81682 10.9665 26.6555
H 3.83581 10.9133 25.5036
O 14.6927 8.67602 14.4082
H 15.5214 8.46202 13.9797
H 14.621 9.62737 14.3305
O 7.16062 26.6333 28.1906
H 6.21062 26.5284 28.2429
H 7.39382 26.2825 27.3311
O 24.8807 10.0773 24.5328
H 24.4146 10.8099 24.1299
H 25.3631 9.67384 23.8113
O 3.58518 1.17867 16.8303
H 4.18602 31.7539 16.587
H 3.1494 1.41586 16.0118
O 22.4315 26.4209 10.7778
H 23.1272 26.6757 10.1717
H 22.3375 27.1714 11.3644
O 31.1977 12.9037 10.868
H 31.8498 13.5699 10.6507
H 31.3681 12.6915 11.7857
O 22.2488 19.7849 30.3152
H 22.0958 19.0323 30.8866
H 21.6789 19.6334 29.5612
O 6.65578 28.9307 19.3118
H 6.94246 29.8417 19.2471
H 5.87209 28.8863 18.764
O 11.9194 22.5457 15.7198
H 11.3281 23.0898 15.1997
H 12.0043 21.7355 15.2172
O 5.79498 29.5205 2.06571
H 5.8323 28.6497 1.67009
H 6.35452 30.0614 1.50847
O 6.9537 26.6475 5.13276
H 6.06093 26.6313 5.47765
H 6.89652 26.1843 4.29703
O 11.4683 31.0823 16.4159
H 11.0199 30.4233 15.8859
H 12.2837 31.2547 15.9451
O 24.1233 14.6908 25.4633
H 23.7608 15.5722 25.374
H 23.4038 14.1094 25.2173
O 20.1706 10.1606 26.7761
H 20.8197 10.4465 26.1333
H 20.6807 9.70551 27.4462
O 1.33641 13.0071 30.5804
H 0.709537 13.2215 29.8895
H 1.70775 13.8509 30.8378
O 1.54543 14.8861 9.98602
H 2.30478 14.4158 9.64189
H 0.943758 14.9461 9.24397
O 27.6759 20.314 0.742038
H 27.0374 20.4135 1.44816
H 27.2546 19.7218 31.3987
O 7.43719 31.6138 19.6356
H 8.07682 31.4905 20.3369
H 7.94007 0.717063 18.9167
O 20.1694 5.31089 15.7322
H 20.5285 4.43646 15.8827
H 20.9372 5.88023 15.6818
O 18.8847 11.9401 15.185
H 19.302 12.3345 15.9508
H 19.6129 11.6973 14.6133
O 6.61678 7.25311 26.9887
H 7.0198 7.41011 26.1348
H 6.37772 8.12432 27.3051
O 2.12209 18.2366 5.29931
H 2.64318 17.4981 4.98423
H 2.76002 18.9348 5.44686
O 11.8445 2.36294 18.9409
H 12.5188 2.33314 18.2622
H 12.216 2.92113 19.624
O 10.5394 29.3852 19.3088
H 10.0168 29.0236 20.0247
H 10.1825 28.9757 18.5207
O 13.2256 18.8811 10.4244
H 13.4979 19.7954 10.5037
H 12.2892 18.8916 10.6224
O 11.2365 28.8272 2.09254
H 10.6191 28.8993 2.82052
H 10.711 29.0088 1.31339
O 9.83277 4.07526 9.27284
H 9.65249 3.31222 8.72375
H 9.7209 3.7579 10.1689
O 28.0167 22.0338 16.3831
H 27.8665 21.2385 16.894
H 27.8695 22.7485 17.0027
O 23.6772 11.9474 22.4845
H 22.7639 12.0571 22.7493
H 24.0025 12.8403 22.3692
O 19.2441 27.9694 12.3524
H 20.0469 28.4718 12.2136
H 19.3802 27.5262 13.1899
O 6.95103 25.1865 18.0879
H 7.62156 25.5175 18.6855
H 6.90542 24.2487 18.274
O 24.8006 14.2641 3.0694
H 24.0192 14.3926 2.53157
H 24.6812 14.8567 3.81154
O 9.03023 3.08773 23.8057
H 8.46251 3.39746 23.1
H 9.77198 3.69271 23.8
O 26.2429 11.9385 28.2265
H 26.5347 11.5194 27.4169
H 25.4523 11.4587 28.4736
O 25.9159 21.798 24.5968
H 26.2868 22.6161 24.9276
H 25.9598 21.1966 25.3402
O 21.9604 3.11896 3.88212
H 21.5781 3.7536 4.4882
H 22.8961 3.32062 3.88213
O 8.50159 16.1388 1.44094
H 9.37141 15.7978 1.64919
H 8.56073 17.0761 1.62572
O 7.34752 22.5902 18.5575
H 7.16052 22.5861 19.4963
H 8.20137 22.1644 18.481
O 19.7671 6.75645 19.3256
H 19.2382 6.95919 20.0973
H 19.2829 6.0622 18.8786
O 2.75335 28.9676 21.4767
H 3.48627 28.3606 21.5799
H 2.19039 28.7946 22.2312
O 30.1831 22.8907 26.2076
H 29.2447 23.0764 26.2418
H 30.5715 23.684 25.8386
O 7.23881 12.1024 2.25264
H 7.06903 11.165 2.34651
H 6.82315 12.4994 3.01804
O 19.27 31.4376 29.7602
H 19.509 30.6603 30.2651
H 18.362 31.6139 30.0065
O 27.5424 30.5149 2.36513
H 28.081 31.1283 1.86518
H 26.9494 31.072 2.86931
O 26.0735 4.01077 17.8335
H 26.5571 4.24496 17.0414
H 25.3605 4.64794 17.8765
O 21.9799 24.0744 23.6198
H 22.0688 23.1869 23.2725
H 22.3133 24.0162 24.5152
O 14.9194 22.8132 23.1824
H 15.7109 23.0478 23.6669
H 14.6708 21.9564 23.5291
O 5.92814 9.91019 27.3973
H 6.84471 10.0322 27.1498
H 5.94578 9.8289 28.3508
O 29.7162 31.8007 31.8794
H 29.4635 1.25087 31.3139
H 30.6087 0.729463 0.876041
O 19.3742 31.4741 12.4124
H 19.0946 30.9371 11.671
H 19.2453 1.09615 12.1179
O 10.5335 7.99111 6.69587
H 10.0826 7.25724 7.11348
H 9.988 8.20921 5.94015
O 15.7143 29.0969 30.7932
H 16.2281 28.3001 30.6613
H 15.836 29.5972 29.9863
O 11.3787 22.4746 19.3181
H 11.3494 23.0822 18.579
H 10.726 21.8073 19.1063
O 30.451 25.3579 14.8784
H 30.0223 25.0946 14.064
H 31.3818 25.1981 14.7221
O 5.29579 14.3016 24.858
H 4.55404 13.767 24.5748
H 5.61345 13.8704 25.6513
O 9.58233 23.0832 10.2041
H 8.96002 23.528 9.62871
H 9.03686 22.6673 10.8718
O 18.5963 7.68771 4.1829
H 18.1081 7.38632 4.94912
H 18.148 8.48918 3.91278
O 1.68992 19.6185 23.5152
H 1.07466 20.2959 23.7961
H 2.4696 20.1013 23.2409
O 21.0613 4.68129 1.13666
H 21.6544 4.05622 0.719755
H 20.4303 4.13643 1.60695
O 0.915766 5.83802 22.4975
H 1.25163 5.01318 22.8483
H 1.27381 6.50933 23.0783
O 15.7217 23.9662 14.8777
H 15.4854 23.1257 14.4854
H 16.6155 23.8396 15.196
O 18.4979 1.19397 5.63478
H 17.921 0.740407 6.24931
H 19.3429 1.23265 6.08281
O 17.7167 5.32273 13.0329
H 18.362 5.81493 12.5253
H 16.9346 5.31232 12.4811
O 9.74988 12.0226 25.8511
H 9.48376 12.7412 26.4247
H 8.97543 11.8411 25.3186
O 26.4453 13.9371 23.9337
H 25.5697 14.0181 24.3118
H 26.9754 13.5582 24.6348
O 26.9342 31.4413 10.0124
H 26.6399 30.6596 9.54492
H 27.8018 31.6241 9.65167
O 1.88647 29.0122 18.866
H 2.22133 29.01 19.7627
H 1.10966 28.4538 18.8985
O 21.1353 1.97854 29.1237
H 20.412 1.46125 29.4779
H 21.0319 1.91698 28.1741
O 2.58969 3.74967 20.1654
H 1.71995 3.68111 19.7716
H 3.02716 2.93301 19.9247
O 2.37087 19.6569 16.3263
H 2.40593 20.4827 16.809
H 1.44228 19.533 16.1299
O 10.4879 18.8716 9.9121
H 10.7084 18.1078 9.379
H 9.76112 18.5788 10.4619
O 5.38194 3.44983 28.1125
H 5.11372 2.75558 27.5106
H 4.5898 3.65683 28.6084
O 9.06134 6.61365 9.00598
H 9.21699 5.70252 9.25469
H 8.20396 6.60316 8.58052
O 1.97901 22.2836 18.1047
H 2.75057 22.7539 17.7887
H 1.26294 22.5999 17.5538
O 14.6966 1.52534 28.7857
H 15.466 1.16959 29.2304
H 14.4358 2.27534 29.3203
O 18.5973 15.9469 15.2432
H 18.1304 15.4277 14.5884
H 19.452 15.523 15.3207
O 4.30051 12.6665 19.6662
H 3.72525 12.2419 20.3026
H 5.01775 12.0454 19.5392
O 28.7239 16.6916 19.4273
H 27.8271 16.4314 19.2169
H 29.0919 15.9358 19.8851
O 2.0654 24.9864 16.7624
H 2.50028 25.1752 15.9308
H 2.57555 25.4667 17.4145
O 31.0469 17.9411 24.6881
H 31.7787 18.0845 24.0879
H 31.0508 18.7094 25.2591
O 9.63329 3.65595 17.8887
H 10.4359 3.16552 18.0665
H 9.81319 4.12302 17.0728
O 12.6966 19.4198 4.65205
H 12.1767 19.8908 5.3033
H 13.6048 19.5813 4.90759
O 29.8864 3.07167 22.6509
H 29.1013 2.59648 22.923
H 29.8452 3.07542 21.6945
O 5.44455 18.0798 0.746218
H 6.29875 18.2982 31.6531
H 5.57002 17.219 1.14563
O 19.3502 30.8304 1.59971
H 19.2828 30.0021 1.12466
H 19.9045 31.3802 1.0459
O 15.3585 26.4908 16.5901
H 16.0759 25.9834 16.9695
H 15.0794 25.9805 15.8298
O 6.89621 19.5157 28.0803
H 7.24903 18.9997 27.3554
H 7.26471 20.3901 27.9541
O 27.2684 4.70127 4.86012
H 26.669 4.00168 5.11996
H 26.7251 5.48917 4.84409
O 23.9707 18.134 15.867
H 24.5084 17.4174 15.5299
H 24.5179 18.9128 15.7654
O 1.074 10.1382 21.9751
H 1.75095 9.55423 21.633
H 31.836 10.3812 21.2074
O 21.7026 22.5442 16.5685
H 21.555 21.6174 16.3804
H 22.611 22.5868 16.8671
O 20.2578 25.1388 5.62618
H 19.5946 25.4024 6.26407
H 21.0688 25.0845 6.13171
O 19.8421 22.5053 4.85782
H 19.9301 21.9062 5.59916
H 20.0665 23.3643 5.2155
O 12.2067 31.7887 25.5
H 12.0119 1.24423 26.0813
H 11.6679 0.666999 24.7247
O 25.5009 30.4331 25.8312
H 25.3499 31.0517 25.1165
H 25.9767 30.9389 26.49
O 28.2334 2.65825 3.4727
H 29.0629 2.41854 3.88577
H 27.9922 3.48885 3.88282
O 0.904429 4.78781 5.61261
H 31.6797 4.05787 5.25334
H 1.7306 4.76946 5.12956
O 10.2272 31.5805 20.6262
H 10.1203 1.04102 20.0286
H 10.2874 30.8161 20.0532
O 0.762488 3.41374 28.8386
H 1.11423 2.89492 28.1152
H 0.996901 4.31635 28.6228
O 12.0073 16.9091 5.24466
H 12.0533 17.816 4.94175
H 12.7944 16.7937 5.77701
O 3.13089 5.25962 4.31194
H 3.93475 5.05395 4.78916
H 3.00674 6.1994 4.44472
O 28.1021 12.2952 3.60489
H 27.8247 12.0467 4.48664
H 29.0432 12.451 3.68439
O 2.52251 1.69548 5.23862
H 1.65856 1.91111 4.88746
H 2.44165 0.788942 5.53508
O 16.2732 24.9433 20.2322
H 16.431 25.8494 20.4976
H 15.4276 24.9683 19.7843
O 11.3846 19.6767 25.6771
H 10.5278 20.0374 25.4489
H 11.3967 19.6743 26.6342
O 11.174 23.2623 1.07805
H 11.3378 22.757 1.87434
H 10.4412 22.8141 0.655876
O 31.5183 30.1931 10.5312
H 31.6343 29.468 9.91721
H 31.5493 29.783 11.3955
O 15.9899 1.0738 18.463
H 15.7257 31.6366 19.0398
H 16.6856 1.52361 18.9424
O 21.7283 27.9224 19.5984
H 21.9671 28.8189 19.8343
H 21.9565 27.4026 20.3691
O 24.7728 14.6845 30.2555
H 25.3169 14.5525 29.4792
H 25.1843 14.1458 30.9314
O 7.96329 17.9968 4.65751
H 8.59324 18.2347 3.97721
H 7.1344 18.3705 4.35831
O 1.5487 3.97934 16.9242
H 1.36435 4.82649 16.5185
H 1.68798 3.3853 16.1867
O 10.4415 16.9886 7.77676
H 9.71992 16.361 7.73685
H 10.8285 16.9653 6.90158
O 6.09197 23.4984 21.0804
H 6.14313 22.9089 21.8327
H 6.47817 24.3175 21.3907
O 26.0401 26.8583 31.6159
H 26.9038 26.5083 31.3977
H 25.9432 26.6912 1.27389
O 29.4767 9.92445 11.5409
H 30.296 9.43053 11.5723
H 29.5957 10.6276 12.1794
O 8.01801 9.69029 11.0369
H 8.43298 9.69394 10.1744
H 7.49316 10.4906 11.0541
O 8.56187 28.3686 17.3517
H 8.44432 27.5984 16.7956
H 7.76822 28.4025 17.8857
O 1.89256 2.15662 26.5253
H 1.59682 2.87445 25.9654
H 1.44711 1.38324 26.1793
O 24.7286 19.8295 10.1792
H 23.792 19.7753 9.98902
H 24.7851 19.7506 11.1314
O 12.4609 13.5806 17.8951
H 13.1845 13.6611 17.2738
H 11.7341 14.0436 17.4783
O 26.8511 12.785 11.1251
H 27.4317 12.9434 11.8695
H 26.3741 13.6074 11.0137
O 26.4876 31.2966 5.77836
H 26.3705 0.962061 5.8754
H 27.4361 31.1693 5.79481
O 10.2173 24.207 24.2751
H 9.34838 24.0854 24.6579
H 10.3596 25.1533 24.2987
O 31.5683 1.23389 20.4982
H 31.7785 0.869646 19.6383
H 31.7482 2.17015 20.4127
O 7.66934 16.061 30.0515
H 8.0128 15.6288 30.8335
H 8.15948 15.6717 29.3273
O 14.6243 16.7219 6.2982
H 14.5936 17.4209 6.95136
H 15.0652 17.1159 5.54551
O 8.12736 15.1948 5.17174
H 8.34523 16.1057 4.97425
H 8.10055 15.1563 6.12779
O 24.1975 26.972 29.3043
H 24.8189 27.0275 30.0302
H 23.4403 26.5154 29.6708
O 15.0317 20.2615 18.3754
H 15.7317 20.5788 18.946
H 14.5816 21.0545 18.0841
O 31.1842 18.0808 28.8211
H 0.801268 18.4151 28.8428
H 31.0021 17.8234 29.7248
O 25.5198 20.2655 2.42071
H 25.9669 20.5401 3.2213
H 24.9619 21.0084 2.19054
O 5.96022 15.5978 21.4082
H 5.99652 16.174 22.1716
H 6.4074 14.7993 21.6887
O 2.83999 28.5819 0.635231
H 3.6017 28.009 0.723809
H 2.6339 28.5644 30.9802
O 16.8202 30.1848 16.6391
H 16.776 30.9822 17.1667
H 17.3206 30.4377 15.8633
O 26.4884 31.7825 28.0907
H 27.0728 31.0875 28.3933
H 26.5809 1.1959 28.7446
O 29.4142 6.11383 13.8518
H 30.1122 5.47569 13.7041
H 29.761 6.69685 14.5271
O 23.64 20.846 19.9678
H 23.244 21.1395 20.7883
H 23.9175 19.9468 20.1433
O 17.509 8.83826 27.3748
H 18.3435 9.30714 27.3782
H 17.6107 8.17238 26.6947
O 4.89489 24.363 26.5171
H 5.70461 24.252 26.0188
H 5.02111 23.8297 27.3019
O 18.3614 3.87314 29.1419
H 17.9469 3.97054 28.2846
H 17.6334 3.72109 29.7445
O 28.739 27.8559 20.6853
H 29.4689 28.4741 20.7207
H 28.4891 27.7269 21.6003
O 4.62397 9.31335 13.6145
H 5.48245 9.71845 13.7376
H 4.70507 8.45079 14.0215
O 17.2719 19.2232 9.56778
H 17.4594 19.0974 10.4979
H 16.7728 20.0393 9.53184
O 17.913 3.76346 5.05517
H 18.6646 4.17657 5.4801
H 17.9871 2.837 5.28408
O 17.452 27.9245 10.3039
H 17.9786 28.0224 11.0972
H 17.9923 28.3009 9.60917
O 21.4559 3.19631 12.5594
H 21.4028 4.14777 12.6495
H 20.6034 2.94063 12.207
O 13.5149 7.92524 6.53257
H 13.438 7.03398 6.87312
H 12.6304 8.28495 6.59988
O 3.43319 7.52133 8.51309
H 3.35266 7.8314 9.41509
H 4.36837 7.35106 8.40045
O 21.5243 4.48121 24.8666
H 20.6624 4.77324 24.5697
H 21.8174 3.87133 24.1896
O 22.1997 30.5568 19.9001
H 22.9099 30.615 19.261
H 21.4649 31.0076 19.484
O 18.5119 4.96463 17.8209
H 19.101 5.19962 17.104
H 17.7084 5.45281 17.641
O 11.6078 9.33398 23.5379
H 11.9117 9.98347 24.1719
H 11.0017 8.78181 24.0317
O 28.7018 22.8114 6.30268
H 29.4984 22.7759 5.7731
H 28.5329 23.7462 6.41979
O 6.21117 9.52245 30.2147
H 6.27806 10.2806 30.7952
H 5.35903 9.13766 30.4197
O 1.73007 17.0736 13.9902
H 2.46918 16.8551 14.5578
H 1.11297 16.352 14.1113
O 29.1131 18.7698 8.60142
H 29.1012 19.7085 8.78844
H 30.0058 18.5958 8.30315
O 28.3624 11.2507 20.7538
H 27.841 12.0514 20.8116
H 28.6072 11.058 21.6589
O 24.9273 19.437 26.0385
H 24.2869 18.7258 26.0201
H 25.7761 18.9952 26.0638
O 31.1266 12.1865 17.4072
H 31.8556 12.7557 17.6536
H 30.989 11.6279 18.1722
O 5.09444 17.9588 8.46592
H 6.04234 18.0283 8.57941
H 4.97682 17.2079 7.88402
O 6.3917 15.057 10.0318
H 6.34258 15.875 10.5264
H 5.48471 14.8664 9.79254
O 7.01226 0.66903 14.1554
H 7.8699 31.5367 14.0504
H 6.5623 31.4047 14.8019
O 12.6799 23.4442 24.9666
H 11.9134 23.7552 24.4848
H 13.3002 23.181 24.2868
O 29.5545 2.74152 11.8134
H 28.8407 3.37112 11.9156
H 30.325 3.19464 12.1557
O 27.1995 21.4171 22.0997
H 26.6482 21.5364 22.8731
H 26.9567 20.5548 21.7625
O 22.2992 12.3163 26.5813
H 21.8575 12.7843 27.2899
H 22.984 11.8101 27.0183
O 27.425 29.2711 24.2868
H 27.5611 29.9563 23.6324
H 26.6922 29.5866 24.8158
O 13.4796 24.5543 4.59811
H 13.1248 23.7607 4.19751
H 13.8169 25.0646 3.86185
O 31.0865 19.9583 18.1712
H 31.7591 19.6793 18.7926
H 30.9463 20.8843 18.369
O 29.3585 2.766 7.43079
H 29.6132 1.93617 7.83421
H 29.8878 2.81833 6.63491
O 28.2327 15.7377 26.9029
H 29.1386 15.9777 27.0977
H 27.7639 15.8831 27.7247
O 11.6242 17.7825 15.4875
H 11.2923 18.2778 16.2363
H 10.8528 17.6242 14.9435
O 18.2608 30.3308 27.1537
H 18.5642 30.8398 27.9054
H 17.3477 30.1262 27.3551
O 24.3632 22.3159 9.16688
H 23.8845 22.0232 8.39135
H 24.6146 21.5072 9.61302
O 22.8938 28.8446 31.6965
H 23.0784 29.0213 1.33938
H 23.5243 29.3831 31.2182
O 6.72396 2.53563 25.4337
H 7.49685 2.75121 24.9118
H 6.42819 1.69348 25.088
O 14.2065 3.15032 26.6435
H 14.4336 2.56915 27.3694
H 14.3286 2.61446 25.8598
O 1.09091 31.4906 29.5116
H 31.4474 31.2979 29.3472
H 1.08401 0.779162 30.282
O 28.7724 14.3275 13.0054
H 28.8428 13.5121 13.5017
H 28.4677 14.9718 13.6444
O 5.22209 13.6752 29.8423
H 5.7424 14.4468 30.0664
H 4.52065 14.0124 29.285
O 12.0443 11.4511 9.83233
H 11.6597 11.479 8.95623
H 12.5555 12.2578 9.89588
O 28.8208 24.8231 23.0243
H 29.4957 24.8306 23.703
H 28.4227 25.6923 23.072
O 13.1902 31.5675 4.36902
H 13.6594 1.08442 4.12062
H 12.7069 31.8101 5.15881
O 0.907608 23.7526 2.8297
H 1.14606 24.327 2.10212
H 1.71563 23.285 3.04103
O 29.5166 14.5941 9.69092
H 28.8721 14.9658 10.2931
H 29.9324 13.8902 10.1889
O 16.6247 4.38059 15.2704
H 17.1592 4.94478 14.7116
H 16.2626 4.97091 15.9312
O 23.1635 7.289 22.4836
H 23.5294 6.72284 23.1631
H 22.4637 7.77122 22.9241
O 14.576 13.1442 16.0861
H 15.3585 13.6944 16.0528
H 14.9063 12.2695 16.2915
O 16.0041 21.5463 31.1812
H 15.0607 21.4656 31.3219
H 16.0856 21.8903 30.2917
O 22.6625 8.2819 26.0779
H 23.456 8.79718 26.2231
H 22.9309 7.59467 25.4681
O 27.8402 16.581 6.73252
H 27.0335 16.2733 6.31936
H 28.1499 17.2834 6.16067
O 15.6854 4.32867 21.1129
H 15.0536 3.72939 21.5103
H 16.515 3.85166 21.1344
O 30.2467 17.2314 3.11364
H 31.0102 16.6582 3.04456
H 30.5962 18.1132 2.98562
O 19.9497 10.9879 11.9526
H 20.765 10.9285 12.4505
H 19.8584 10.1298 11.5383
O 15.3489 15.9872 24.0549
H 14.606 16.5901 24.0257
H 14.9644 15.1438 24.2939
O 22.0138 5.62874 20.3393
H 22.5113 6.21051 20.914
H 21.2935 6.16969 20.0154
O 8.81746 0.876381 17.4357
H 9.63489 31.6887 17.2634
H 9.0122 1.78831 17.2196
O 23.9667 27.9835 25.7225
H 24.0265 28.9066 25.9684
H 23.1148 27.7011 26.0553
O 27.1519 5.498 15.5672
H 27.4041 6.32679 15.9742
H 27.7169 5.42671 14.7978
O 24.8715 17.162 21.2935
H 24.2283 17.8007 21.6011
H 25.6456 17.322 21.8333
O 10.1078 7.32526 25.1281
H 10.7133 6.62173 24.8943
H 10.3693 7.58299 26.0121
O 5.30245 28.2193 24.4714
H 4.91477 27.3583 24.3148
H 5.0235 28.7477 23.7236
O 28.0997 4.32396 27.5998
H 28.3245 4.3297 26.6694
H 28.4035 5.17129 27.9253
O 2.92381 16.8683 11.2772
H 2.46909 16.9535 12.1152
H 2.42043 16.211 10.7968
O 6.07067 21.9132 14.3318
H 5.14718 21.7094 14.4796
H 6.27758 21.4963 13.4954
O 29.9154 14.1153 5.23621
H 30.3691 14.4577 6.00636
H 30.4753 14.3597 4.49937
O 16.0657 6.51261 23.0022
H 16.1413 5.71676 22.4758
H 15.1371 6.7409 22.9601
O 31.329 3.69744 19.243
H 31.6518 3.88238 18.3611
H 30.4342 3.38443 19.1104
O 5.52042 23.059 29.051
H 6.45897 23.0863 28.865
H 5.42874 23.5109 29.8898
O 17.7213 18.8633 21.6556
H 17.1682 19.6307 21.5094
H 17.1914 18.1249 21.3553
O 4.42837 1.61821 9.52128
H 3.86329 2.03516 8.87085
H 3.83711 1.37971 10.2352
O 8.77108 20.5008 24.5621
H 8.56317 19.6027 24.8197
H 8.01203 20.7865 24.0537
O 14.2343 31.1185 15.19
H 14.0661 31.5204 14.3377
H 15.1422 31.3475 15.3884
O 30.0747 29.1776 30.6468
H 30.3358 29.9732 31.1106
H 29.2872 29.4287 30.1641
O 13.0161 25.6875 26.4861
H 12.131 25.7887 26.8362
H 12.9508 24.9518 25.8772
O 20.8629 29.8014 3.73087
H 21.2298 28.9601 3.45894
H 20.2366 30.024 3.0421
O 28.9411 23.7546 13.1758
H 28.0567 23.8204 13.5359
H 29.2998 22.9569 13.5647
O 29.8498 9.38017 26.9883
H 30.0993 9.52 27.9018
H 29.0148 9.83879 26.8947
O 24.8193 11.2629 10.7083
H 24.5409 11.9 10.0505
H 25.6727 11.5802 11.0037
O 29.2624 27.7766 25.727
H 30.0942 28.1797 25.9759
H 28.8405 28.4252 25.1634
O 31.8005 31.5488 24.9726
H 0.637542 0.759646 24.1589
H 30.8923 31.7151 25.2251
O 9.52612 0.784199 0.869077
H 9.87014 0.684804 1.75677
H 8.85987 1.46726 0.944981
O 13.6111 21.8926 20.737
H 13.9056 22.4737 21.4383
H 13.0494 22.4419 20.1902
O 10.9926 8.01569 27.7753
H 10.9276 7.34347 28.4537
H 11.9199 8.25269 27.7604
O 1.21765 11.4413 15.2893
H 1.23408 12.2435 14.7673
H 0.891831 11.7187 16.1455
O 30.3034 27.3986 1.67258
H 30.2435 28.1307 1.0588
H 31.1484 26.9923 1.47979
O 16.1506 12.4608 30.9583
H 15.9711 12.2715 30.0373
H 16.9618 11.9889 31.1467
O 24.4481 4.37258 3.559
H 25.2874 4.68198 3.21846
H 24.3891 4.7541 4.4349
O 23.2618 12.7992 8.73652
H 22.6887 12.6923 7.97737
H 23.8091 13.554 8.51956
O 23.8672 8.14937 17.0219
H 23.3021 8.89328 17.2304
H 24.3576 8.42967 16.2491
O 18.0628 3.04033 9.06923
H 17.9416 3.9014 8.6691
H 18.8841 2.71708 8.69888
O 20.6298 30.301 16.6357
H 19.8222 30.1218 16.1542
H 20.3352 30.6439 17.4794
O 10.7336 26.4737 12.8609
H 10.4899 27.3292 13.2145
H 11.6429 26.5797 12.5814
O 13.1449 26.1876 11.4906
H 13.8373 26.1311 12.1491
H 13.0797 27.1213 11.2904
O 10.0464 10.7157 16.5938
H 10.6436 10.4264 17.2837
H 9.38012 11.2276 17.0523
O 17.4953 15.0902 7.33606
H 17.8595 15.3976 8.1662
H 16.7009 15.6103 7.21518
O 27.8055 20.933 4.08297
H 27.3592 21.3367 4.82733
H 28.2508 20.1713 4.45439
O 6.49793 31.4497 28.9172
H 6.13453 0.80335 28.2981
H 6.17085 30.6028 28.614
O 22.3672 25.6228 21.2238
H 23.2056 25.1631 21.1804
H 22.0582 25.4745 22.1176
O 14.7056 8.26585 11.2185
H 15.3078 8.16568 11.9558
H 13.9548 8.73392 11.5838
O 1.42549 11.1963 1.40823
H 1.27697 10.2949 1.12241
H 1.4897 11.6982 31.8753
O 26.1222 2.37075 1.81749
H 26.9723 2.49926 2.2382
H 25.6517 1.77774 2.40333
O 1.87749 3.84494 24.5331
H 2.72508 4.01236 24.9451
H 2.03483 3.09812 23.9554
O 18.0035 16.8487 25.176
H 17.1052 16.6103 24.947
H 18.0846 17.7642 24.9086
O 23.979 20.279 12.9673
H 23.0296 20.1572 12.9617
H 24.099 21.228 13.0033
O 5.54493 30.4449 15.8264
H 5.09477 29.7568 15.3365
H 6.09537 29.9735 16.4517
O 16.1156 11.6928 9.23079
H 15.9708 10.8517 8.79742
H 15.2406 11.9849 9.48623
O 18.5281 13.2592 24.2185
H 18.3762 13.4585 23.2947
H 18.0541 12.4413 24.3687
O 28.0321 27.1377 28.1151
H 27.2621 26.6418 27.8368
H 28.4123 27.4675 27.3009
O 1.97114 6.32589 20.046
H 2.39105 5.51625 19.7555
H 1.43309 6.06269 20.7926
O 25.5687 27.9338 21.2268
H 24.7222 28.0234 21.6646
H 25.3836 27.401 20.4534
O 4.59906 15.9489 6.71442
H 4.38241 15.027 6.57529
H 4.49495 16.3526 5.85277
O 8.57953 23.1012 30.8505
H 8.58109 24.0214 30.5869
H 7.83925 23.0252 31.4525
O 9.97443 21.5393 13.0886
H 9.24061 20.9623 13.3003
H 9.79535 22.3438 13.5753
O 22.8295 22.7719 3.09784
H 22.7891 22.2811 2.277
H 23.0492 23.6651 2.83289
O 31.5989 20.3027 5.7724
H 31.4477 20.5384 6.68774
H 1.19163 19.9087 5.76695
O 4.44174 5.91913 31.0511
H 3.826 6.63584 30.8981
H 4.254 5.28885 30.3556
O 9.74258 12.2585 11.7505
H 8.88188 12.5714 11.4721
H 10.2708 12.2672 10.9524
O 4.30556 1.44853 30.5273
H 4.57419 0.79863 29.8779
H 3.9571 0.931944 31.2539
O 24.7807 5.41659 13.624
H 24.6454 4.55446 13.2307
H 25.5266 5.29779 14.212
O 14.9377 17.7541 12.4026
H 14.3776 18.1338 11.7256
H 15.6658 18.37 12.4849
O 13.7466 13.4784 9.99213
H 13.5396 13.912 10.8201
H 14.2127 14.1421 9.48365
O 19.977 15.3571 30.2227
H 19.3105 16.0423 30.2731
H 19.8213 14.8136 30.9951
O 23.5761 28.8651 3.13393
H 23.9997 29.6979 2.92594
H 24.2994 28.2459 3.2323
O 4.20443 19.4254 26.6528
H 4.62337 19.1938 25.8239
H 4.9325 19.6033 27.2482
O 25.2941 4.10857 22.5371
H 25.6086 3.27408 22.1893
H 25.7255 4.77124 21.9976
O 6.41364 29.0591 27.5865
H 5.97591 28.7871 26.7799
H 6.76809 28.2486 27.9523
O 7.92183 18.109 26.0218
H 7.6337 17.4014 25.4451
H 8.63577 17.7269 26.5322
O 17.5538 14.0189 13.4959
H 17.6487 13.7927 12.5707
H 18.0112 13.3192 13.9622
O 7.64198 9.19035 20.4161
H 8.41412 9.74571 20.5238
H 7.98895 8.29851 20.3944
O 24.8114 8.90854 8.7288
H 25.3828 9.54595 9.15714
H 25.3013 8.08688 8.76169
O 19.9475 20.3239 18.6397
H 20.1921 20.0057 17.7707
H 19.1373 19.8581 18.8466
O 17.4113 6.75826 25.434
H 17.1735 5.95804 25.9023
H 17.0235 6.65224 24.5653
O 6.60671 25.7275 22.7934
H 5.70976 25.5883 23.0973
H 7.12148 25.8127 23.5959
O 6.7094 25.4448 2.70886
H 6.03819 25.9652 2.26746
H 7.53118 25.8923 2.50733
O 22.7694 6.40727 2.46478
H 22.1688 5.83847 1.98313
H 23.5159 5.84582 2.67387
O 31.7307 8.52961 11.5821
H 1.37157 8.44099 11.3348
H 31.3803 7.64068 11.5252
O 1.51797 18.5112 19.9918
H 1.67702 17.8436 19.3246
H 0.702443 18.2399 20.4132
O 29.0915 6.6732 20.3152
H 28.5808 5.86755 20.3944
H 28.4372 7.36128 20.1943
O 30.0671 17.3046 31.6836
H 30.0494 18.2469 31.5166
H 29.9871 17.2278 1.35479
O 8.61609 4.90672 26.8257
H 8.07908 5.65617 26.5684
H 9.19967 4.76268 26.0807
O 17.9277 9.0616 15.3416
H 17.2411 9.70059 15.5328
H 18.5345 9.13362 16.0784
O 21.034 27.1991 23.5111
H 21.0997 27.1684 24.4656
H 21.8849 27.529 23.2225
O 15.1657 9.48895 21.9862