LAMMPS (22 Aug 2018)
Reading data file ...
  orthogonal box = (0 0 0) to (32.5249 32.5249 32.5249)
  4 by 4 by 8 MPI processor grid
  reading atoms ...
  3036 atoms
  scanning bonds ...
  2 = max bonds/atom
  scanning angles ...
  1 = max angles/atom
  reading bonds ...
  2000 bonds
  reading angles ...
  1000 angles
Finding 1-2 1-3 1-4 neighbors ...
  special bond factors lj:   0          0          0         
  special bond factors coul: 0          0          0         
  2 = max # of 1-2 neighbors
  1 = max # of 1-3 neighbors
  1 = max # of 1-4 neighbors
  2 = max # of special neighbors
Setting atom values ...
  1000 settings made for charge
Setting atom values ...
  2000 settings made for charge
Setting atom values ...
  18 settings made for charge
Setting atom values ...
  18 settings made for charge
1000 atoms in group wat
18 atoms in group Na
18 atoms in group Cl
PPPM initialization ...
  extracting TIP4P info from pair style
  using 12-bit tables for long-range coulomb (../kspace.cpp:321)
  G vector (1/distance) = 0.309318
  grid = 30 30 30
  stencil order = 5
  estimated absolute RMS force accuracy = 0.00381678
  estimated relative force accuracy = 1.14941e-05
  using double precision FFTs
  3d grid and FFT values/proc = 2475 256
Neighbor list info ...
  update every 1 steps, delay 0 steps, check yes
  max neighbors/atom: 2000, page size: 100000
  master list distance cutoff = 12.3092
  ghost atom cutoff = 12.3092
  binsize = 6.1546, bins = 6 6 6
  1 neighbor lists, perpetual/occasional/extra = 1 0 0
  (1) pair lj/cut/tip4p/long, perpetual
      attributes: half, newton on
      pair build: half/bin/newton
      stencil: half/bin/3d/newton
      bin: standard
Setting up cg style minimization ...
  Unit style    : real
  Current step  : 0
Per MPI rank memory allocation (min/avg/max) = 8.198 | 8.26 | 8.733 Mbytes
Step Temp E_pair E_mol TotEng Press 
       0            0    304.81359 3.4661043e-05    304.81363    17134.375 
    1000            0   -16104.981    371.92912   -15733.052    -5109.159 
Loop time of 1.4226 on 128 procs for 1000 steps with 3036 atoms

99.1% CPU use with 128 MPI tasks x no OpenMP threads

Minimization stats:
  Stopping criterion = max iterations
  Energy initial, next-to-last, final = 
         304.813627879     -15732.9270853     -15733.0516619
  Force two-norm initial, final = 1135.66 25.767
  Force max component initial, final = 74.5395 7.10043
  Final line search alpha, max atom move = 0.0096375 0.0684305
  Iterations, force evaluations = 1000 1802

MPI task timing breakdown:
Section |  min time  |  avg time  |  max time  |%varavg| %total
---------------------------------------------------------------
Pair    | 0.22228    | 0.36584    | 0.53865    |  11.3 | 25.72
Bond    | 0.0010525  | 0.0016431  | 0.0022398  |   0.5 |  0.12
Kspace  | 0.59806    | 0.77056    | 0.91207    |   7.8 | 54.17
Neigh   | 0.0061273  | 0.0062018  | 0.0065619  |   0.1 |  0.44
Comm    | 0.17921    | 0.19608    | 0.21104    |   1.7 | 13.78
Output  | 8.6491e-05 | 9.147e-05  | 9.5198e-05 |   0.0 |  0.01
Modify  | 0          | 0          | 0          |   0.0 |  0.00
Other   |            | 0.08218    |            |       |  5.78

Nlocal:    23.7188 ave 32 max 10 min
Histogram: 1 1 3 12 11 30 26 21 13 10
Nghost:    2689.23 ave 2714 max 2660 min
Histogram: 5 0 12 15 17 28 19 19 10 3
Neighs:    8182.52 ave 12041 max 3383 min
Histogram: 1 2 11 15 25 23 22 15 8 6

Total # of neighbors = 1047362
Ave neighs/atom = 344.981
Ave special neighs/atom = 1.97628
Neighbor list builds = 20
Dangerous builds = 0
Finding SHAKE clusters ...
  0 = # of size 2 clusters
  0 = # of size 3 clusters
  0 = # of size 4 clusters
  1000 = # of frozen angles
PPPM initialization ...
  extracting TIP4P info from pair style
  using 12-bit tables for long-range coulomb (../kspace.cpp:321)
  G vector (1/distance) = 0.309318
  grid = 30 30 30
  stencil order = 5
  estimated absolute RMS force accuracy = 0.00381678
  estimated relative force accuracy = 1.14941e-05
  using double precision FFTs
  3d grid and FFT values/proc = 2475 256
Setting up Verlet run ...
  Unit style    : real
  Current step  : 0
  Time step     : 0.001
Per MPI rank memory allocation (min/avg/max) = 7.949 | 8.107 | 8.217 Mbytes
Step Temp E_pair E_mol TotEng Press Volume 
       0    444.43735   -16104.981            0   -13409.047   -957771.67    34407.173 
   10000    173.61966   -14509.372            0   -13456.204    1588.6588    34222.669 
Loop time of 9.62835 on 128 procs for 10000 steps with 3036 atoms

Performance: 0.090 ns/day, 267.454 hours/ns, 1038.599 timesteps/s
99.3% CPU use with 128 MPI tasks x no OpenMP threads

MPI task timing breakdown:
Section |  min time  |  avg time  |  max time  |%varavg| %total
---------------------------------------------------------------
Pair    | 0.97519    | 2.397      | 3.7203     |  33.1 | 24.90
Bond    | 0.00093295 | 0.0011804  | 0.0020998  |   0.5 |  0.01
Kspace  | 3.4872     | 4.8116     | 6.2125     |  23.2 | 49.97
Neigh   | 0          | 0          | 0          |   0.0 |  0.00
Comm    | 0.94913    | 1.0443     | 1.1501     |   4.4 | 10.85
Output  | 9.5388e-05 | 0.00010156 | 0.00010672 |   0.0 |  0.00
Modify  | 0.99697    | 1.1943     | 1.2905     |   6.1 | 12.40
Other   |            | 0.1798     |            |       |  1.87

Nlocal:    23.7188 ave 32 max 10 min
Histogram: 1 1 3 12 10 31 25 22 14 9
Nghost:    2690.38 ave 2716 max 2658 min
Histogram: 4 2 8 16 16 25 20 20 13 4
Neighs:    8181.99 ave 12280 max 3390 min
Histogram: 1 2 12 15 28 20 22 17 7 4

Total # of neighbors = 1047295
Ave neighs/atom = 344.959
Ave special neighs/atom = 1.97628
Neighbor list builds = 0
Dangerous builds = 0
PPPM initialization ...
  extracting TIP4P info from pair style
  using 12-bit tables for long-range coulomb (../kspace.cpp:321)
  G vector (1/distance) = 0.309448
  grid = 30 30 30
  stencil order = 5
  estimated absolute RMS force accuracy = 0.00379643
  estimated relative force accuracy = 1.14328e-05
  using double precision FFTs
  3d grid and FFT values/proc = 2475 256
Setting up Verlet run ...
  Unit style    : real
  Current step  : 10000
  Time step     : 0.01
Per MPI rank memory allocation (min/avg/max) = 7.949 | 8.109 | 8.217 Mbytes
Step Temp E_pair E_mol TotEng Press Volume 
   10000    173.61966   -14509.372            0   -13456.204   -89565.946    34222.669 
   20000    296.57116   -13399.188            0   -11600.203     -1118.44    34486.364 
Loop time of 8.96948 on 128 procs for 10000 steps with 3036 atoms

Performance: 0.963 ns/day, 24.915 hours/ns, 1114.892 timesteps/s
99.4% CPU use with 128 MPI tasks x no OpenMP threads

MPI task timing breakdown:
Section |  min time  |  avg time  |  max time  |%varavg| %total
---------------------------------------------------------------
Pair    | 1.2119     | 2.373      | 3.5202     |  32.2 | 26.46
Bond    | 0.00094265 | 0.0011746  | 0.0019289  |   0.5 |  0.01
Kspace  | 3.1293     | 4.2896     | 5.4485     |  23.9 | 47.82
Neigh   | 0.0011141  | 0.0011551  | 0.0011982  |   0.1 |  0.01
Comm    | 0.91761    | 1.023      | 1.1381     |   4.9 | 11.41
Output  | 8.1142e-05 | 8.6348e-05 | 9.0479e-05 |   0.0 |  0.00
Modify  | 0.9319     | 1.1361     | 1.2248     |   6.5 | 12.67
Other   |            | 0.1454     |            |       |  1.62

Nlocal:    23.7188 ave 34 max 14 min
Histogram: 4 7 14 12 22 26 21 11 7 4
Nghost:    2683.62 ave 2708 max 2654 min
Histogram: 3 9 13 12 12 22 19 18 9 11
Neighs:    8140.39 ave 12150 max 4356 min
Histogram: 3 6 21 18 21 24 14 7 12 2

Total # of neighbors = 1041970
Ave neighs/atom = 343.205
Ave special neighs/atom = 1.97628
Neighbor list builds = 4
Dangerous builds = 0
PPPM initialization ...
  extracting TIP4P info from pair style
  using 12-bit tables for long-range coulomb (../kspace.cpp:321)
  G vector (1/distance) = 0.309263
  grid = 30 30 30
  stencil order = 5
  estimated absolute RMS force accuracy = 0.00382551
  estimated relative force accuracy = 1.15204e-05
  using double precision FFTs
  3d grid and FFT values/proc = 2475 256
Setting up Verlet run ...
  Unit style    : real
  Current step  : 20000
  Time step     : 0.1
Per MPI rank memory allocation (min/avg/max) = 7.949 | 8.125 | 8.217 Mbytes
Step Temp E_pair E_mol TotEng Press Volume 
   20000    296.57116   -13399.189            0   -11600.203   -15217.473    34486.364 
   30000    298.36348   -13400.089            0   -11590.232    529.55001    31646.892 
Loop time of 9.1947 on 128 procs for 10000 steps with 3036 atoms

Performance: 9.397 ns/day, 2.554 hours/ns, 1087.583 timesteps/s
99.4% CPU use with 128 MPI tasks x no OpenMP threads

MPI task timing breakdown:
Section |  min time  |  avg time  |  max time  |%varavg| %total
---------------------------------------------------------------
Pair    | 1.6551     | 2.5884     | 3.5252     |  23.2 | 28.15
Bond    | 0.00094253 | 0.0011834  | 0.0020434  |   0.5 |  0.01
Kspace  | 3.2882     | 4.2298     | 5.1555     |  17.9 | 46.00
Neigh   | 0.013961   | 0.01413    | 0.014385   |   0.1 |  0.15
Comm    | 0.95011    | 1.0542     | 1.166      |   4.5 | 11.47
Output  | 8.4438e-05 | 8.8908e-05 | 9.2443e-05 |   0.0 |  0.00
Modify  | 0.96376    | 1.1619     | 1.2482     |   6.1 | 12.64
Other   |            | 0.145      |            |       |  1.58

Nlocal:    23.7188 ave 33 max 16 min
Histogram: 5 9 23 12 28 21 8 14 6 2
Nghost:    2875.67 ave 2922 max 2826 min
Histogram: 3 6 9 15 27 24 21 11 9 3
Neighs:    8880.09 ave 12789 max 5702 min
Histogram: 6 12 18 21 18 21 16 8 4 4

Total # of neighbors = 1136652
Ave neighs/atom = 374.391
Ave special neighs/atom = 1.97628
Neighbor list builds = 48
Dangerous builds = 0
PPPM initialization ...
  extracting TIP4P info from pair style
  using 12-bit tables for long-range coulomb (../kspace.cpp:321)
  G vector (1/distance) = 0.311328
  grid = 30 30 30
  stencil order = 5
  estimated absolute RMS force accuracy = 0.00351261
  estimated relative force accuracy = 1.05781e-05
  using double precision FFTs
  3d grid and FFT values/proc = 2475 256
Setting up Verlet run ...
  Unit style    : real
  Current step  : 30000
  Time step     : 0.2
Per MPI rank memory allocation (min/avg/max) = 7.95 | 8.171 | 8.218 Mbytes
Step Temp E_pair E_mol TotEng Press Volume 
   30000    298.36348   -13400.083            0   -11590.226    2810.6595    31646.892 
   40000    291.07036   -13515.567            0   -11749.949   -564.00266    30724.852 
Loop time of 9.44291 on 128 procs for 10000 steps with 3036 atoms

Performance: 18.299 ns/day, 1.312 hours/ns, 1058.996 timesteps/s
99.4% CPU use with 128 MPI tasks x no OpenMP threads

MPI task timing breakdown:
Section |  min time  |  avg time  |  max time  |%varavg| %total
---------------------------------------------------------------
Pair    | 2.0065     | 2.7313     | 3.7338     |  20.3 | 28.92
Bond    | 0.00094492 | 0.0011849  | 0.0020607  |   0.5 |  0.01
Kspace  | 3.2702     | 4.2676     | 4.9637     |  16.0 | 45.19
Neigh   | 0.030772   | 0.031279   | 0.032068   |   0.2 |  0.33
Comm    | 0.97771    | 1.0851     | 1.2046     |   5.1 | 11.49
Output  | 8.8926e-05 | 9.4392e-05 | 9.8043e-05 |   0.0 |  0.00
Modify  | 0.9769     | 1.1788     | 1.2659     |   6.3 | 12.48
Other   |            | 0.1475     |            |       |  1.56

Nlocal:    23.7188 ave 30 max 17 min
Histogram: 5 4 8 28 15 16 25 17 8 2
Nghost:    2945.27 ave 2983 max 2898 min
Histogram: 3 7 9 16 16 12 23 24 15 3
Neighs:    9141.91 ave 11926 max 5747 min
Histogram: 3 6 7 14 18 28 15 22 9 6

Total # of neighbors = 1170164
Ave neighs/atom = 385.43
Ave special neighs/atom = 1.97628
Neighbor list builds = 96
Dangerous builds = 0
PPPM initialization ...
  extracting TIP4P info from pair style
  using 12-bit tables for long-range coulomb (../kspace.cpp:321)
  G vector (1/distance) = 0.312034
  grid = 30 30 30
  stencil order = 5
  estimated absolute RMS force accuracy = 0.00341113
  estimated relative force accuracy = 1.02725e-05
  using double precision FFTs
  3d grid and FFT values/proc = 2475 256
Setting up Verlet run ...
  Unit style    : real
  Current step  : 40000
  Time step     : 0.5
Per MPI rank memory allocation (min/avg/max) = 7.955 | 8.205 | 8.219 Mbytes
Step Temp E_pair E_mol TotEng Press Volume 
   40000    291.07036   -13515.564            0   -11749.946   -1438.9249    30724.852 
   50000    296.69764   -13559.516            0   -11759.764    284.94404    30495.757 
Loop time of 9.6484 on 128 procs for 10000 steps with 3036 atoms

Performance: 44.774 ns/day, 0.536 hours/ns, 1036.441 timesteps/s
99.4% CPU use with 128 MPI tasks x no OpenMP threads

MPI task timing breakdown:
Section |  min time  |  avg time  |  max time  |%varavg| %total
---------------------------------------------------------------
Pair    | 2.1175     | 2.7814     | 3.5193     |  17.9 | 28.83
Bond    | 0.00094443 | 0.0011911  | 0.0020442  |   0.5 |  0.01
Kspace  | 3.5931     | 4.3237     | 4.9581     |  14.1 | 44.81
Neigh   | 0.073688   | 0.074959   | 0.076121   |   0.3 |  0.78
Comm    | 0.99473    | 1.0999     | 1.2236     |   5.1 | 11.40
Output  | 8.0241e-05 | 8.4791e-05 | 8.8285e-05 |   0.0 |  0.00
Modify  | 0.99063    | 1.196      | 1.2823     |   6.3 | 12.40
Other   |            | 0.1712     |            |       |  1.77

Nlocal:    23.7188 ave 32 max 17 min
Histogram: 5 7 12 15 36 24 16 7 4 2
Nghost:    2957.5 ave 2988 max 2925 min
Histogram: 7 4 20 20 10 11 18 22 13 3
Neighs:    9188.76 ave 12975 max 5553 min
Histogram: 2 7 14 17 28 22 17 16 3 2

Total # of neighbors = 1176161
Ave neighs/atom = 387.405
Ave special neighs/atom = 1.97628
Neighbor list builds = 240
Dangerous builds = 0
PPPM initialization ...
  extracting TIP4P info from pair style
  using 12-bit tables for long-range coulomb (../kspace.cpp:321)
  G vector (1/distance) = 0.312213
  grid = 30 30 30
  stencil order = 5
  estimated absolute RMS force accuracy = 0.00338592
  estimated relative force accuracy = 1.01966e-05
  using double precision FFTs
  3d grid and FFT values/proc = 2475 256
Setting up Verlet run ...
  Unit style    : real
  Current step  : 0
  Time step     : 2
Per MPI rank memory allocation (min/avg/max) = 8.201 | 8.213 | 8.219 Mbytes
Step Temp E_pair E_mol TotEng Press Volume 
       0    296.69764   -13559.516            0   -11759.764    -23.50352    30495.757 
   10000    304.34934   -13562.385            0   -11716.218     590.1967    29993.453 
   20000    297.89651   -13656.285            0    -11849.26   -494.89075    30609.815 
   30000    294.72256   -13499.608            0   -11711.836    219.29474    30243.189 
   40000    298.97448   -13634.012            0   -11820.448    88.436035     30691.39 
   50000      286.981   -13424.701            0   -11683.889    -781.8083     31233.22 
   60000    307.88592    -13580.31            0    -11712.69    1077.8861    30493.744 
   70000    298.21304   -13567.478            0   -11758.533   -469.50391    31087.418 
   80000    299.66824   -13591.653            0   -11773.881    141.97398    30377.179 
   90000    302.68712   -13514.249            0   -11678.164   -422.35519    30837.042 
  100000    297.90974   -13651.019            0   -11843.913   -54.660743     30573.97 
  110000     288.0485   -13629.115            0   -11881.828   -32.123715    30562.793 
  120000      301.735   -13637.333            0   -11807.024   -904.18167    30809.932 
  130000    291.03354   -13609.208            0   -11843.814    662.38396    30402.315 
  140000    297.54255   -13613.874            0   -11808.996    -181.8607    30720.406 
  150000    299.59996   -13613.595            0   -11796.237    -73.73756    30622.971 
  160000    301.50167   -13534.198            0   -11705.304     408.2726    30350.962 
  170000     305.5347   -13632.786            0   -11779.428   -953.60469    30852.472 
  180000    297.35951   -13546.456            0   -11742.689   -263.47837    30581.129 
  190000    293.39695   -13533.053            0   -11753.322   -280.03413    31250.003 
  200000    298.06857   -13540.999            0    -11732.93   -89.218289    31131.166 
  210000    303.55444    -13646.58            0   -11805.234    732.33349    30342.623 
  220000    295.30005   -13520.725            0    -11729.45   -494.23493    30839.995 
  230000    297.55063   -13543.064            0   -11738.138   -490.64224      30626.5 
  240000    297.14896   -13628.437            0   -11825.947    474.88258    30478.572 
  250000    299.79374   -13697.104            0    -11878.57    98.486496    30780.492 
  260000    295.99725   -13631.247            0   -11835.743    850.46309    30289.591 
  270000    295.93937   -13517.738            0   -11722.585   -444.08602    30829.931 
  280000    304.48372   -13526.271            0   -11679.289    77.912441    30827.765 
  290000    288.46723   -13658.887            0   -11909.059   -37.052154    30633.695 
  300000    290.94269   -13613.817            0   -11848.974     727.6769    30318.857 
  310000    294.17341   -13604.583            0   -11820.142    655.18483    30435.998 
  320000    301.65637   -13503.376            0   -11673.545   -321.67657    30782.127 
  330000    303.82425   -13637.005            0   -11794.022    501.78016    30504.204 
  340000    301.45165   -13601.501            0   -11772.911    -159.7489    30937.143 
  350000    297.64374   -13656.072            0    -11850.58    657.45235    30214.199 
  360000    300.31701   -13579.293            0   -11757.585   -106.92455     30025.08 
  370000     294.6704   -13580.561            0   -11793.106   -301.13197    30987.688 
  380000    306.38336   -13494.835            0   -11636.329    496.07091    30327.132 
  390000    290.36881   -13640.997            0   -11879.634    309.46296     30696.29 
  400000    299.57055   -13616.233            0   -11799.053    659.43488    31071.884 
  410000    297.14709   -13547.972            0   -11745.493    605.00758    30238.612 
  420000     302.8438    -13615.48            0   -11778.445    59.944938    31091.003 
  430000    296.77866    -13614.32            0   -11814.076    419.86218    30839.831 
  440000    298.75402   -13594.518            0   -11782.292    101.22651    30633.157 
  450000    298.85175   -13491.042            0   -11678.223   -18.269817    30659.273 
  460000    296.76711   -13628.004            0    -11827.83    139.06985    30749.183 
  470000    297.28262   -13553.974            0   -11750.673    59.647892    30862.358 
  480000     301.7671   -13569.537            0   -11739.033   -451.19391    30832.792 
  490000    284.72251   -13516.745            0   -11789.633    141.67018    30425.374 
  500000    300.68785   -13578.696            0   -11754.739   -455.56052    30469.875 
  510000    294.07546   -13558.712            0   -11774.865    192.21468    30644.468 
  520000     309.4773   -13652.068            0   -11774.795   -187.10035    30763.087 
  530000    299.48517   -13622.263            0   -11805.602    337.06695    30715.517 
  540000    296.12848   -13537.822            0   -11741.522    -674.5673    30855.035 
  550000    302.35007   -13503.482            0   -11669.442   -265.45912    30413.949 
  560000    295.63569   -13564.898            0   -11771.587    171.42727    30774.976 
  570000    291.27808   -13623.166            0   -11856.288   -673.50233    30641.821 
  580000    296.66638   -13633.624            0   -11834.061    1096.2884    29971.276 
  590000    293.35899   -13493.866            0   -11714.365   -373.12704    31352.064 
  600000    295.47052   -13620.916            0   -11828.607    107.67269    30633.342 
  610000    302.04459    -13638.64            0   -11806.453    -135.8365    30317.777 
  620000    297.24863   -13573.731            0   -11770.636   -315.61582    30714.564 
  630000    299.26513   -13586.807            0    -11771.48   -349.87651    30520.864 
  640000    296.79587   -13564.468            0   -11764.119    625.09166    30631.661 
  650000    300.49967   -13562.815            0   -11739.999    878.99189    30845.218 
  660000    313.09647   -13551.385            0   -11652.158    494.93702    30863.548 
  670000    295.60954   -13635.229            0   -11842.077   -64.458841    30735.821 
  680000    300.36034   -13636.233            0   -11814.263   -15.187161    30972.372 
  690000    299.09901    -13585.87            0    -11771.55    1289.3417     29944.61 
  700000    305.36209   -13620.293            0   -11767.983    321.27819    30549.553 
  710000    296.43467   -13544.099            0   -11745.942   -114.66701    30717.323 
  720000    293.35331   -13497.562            0   -11718.096    168.49253     30580.95 
  730000    296.75306   -13636.087            0   -11835.999    111.65471    30348.144 
  740000     287.0093    -13556.86            0   -11815.877   -89.373786    30317.892 
  750000    302.79975   -13721.315            0   -11884.548    470.02757    30721.124 
  760000    304.37177   -13545.083            0   -11698.779    305.58512     30903.84 
  770000    288.99839   -13614.336            0   -11861.287    698.82058    30390.534 
  780000     296.3844   -13502.097            0   -11704.245    431.78847    30726.419 
  790000    293.64947   -13668.829            0   -11887.566   -92.738168    30671.513 
  800000    298.06372   -13574.156            0   -11766.117    23.514253    30754.964 
  810000    299.15981   -13649.388            0     -11834.7    599.35816    30570.286 
  820000    296.59974   -13563.377            0   -11764.219   -1052.7024    31046.099 
  830000    296.62544   -13596.535            0   -11797.221    541.85707    30363.121 
  840000    299.00303   -13596.961            0   -11783.224    333.11801    30501.782 
  850000    297.18239   -13557.355            0   -11754.662   -23.904995    30738.179 
  860000    302.59133   -13537.102            0   -11701.598    253.45749    30296.766 
  870000    307.01454   -13489.254            0   -11626.919    873.94469    30739.778 
  880000    301.25374   -13600.953            0   -11773.563   -15.868429    30238.824 
  890000    304.59238   -13556.161            0    -11708.52   -99.112675     30327.67 
  900000    304.75895   -13601.029            0   -11752.377    583.33292    30465.363 
  910000    293.75647   -13650.509            0   -11868.597    153.66926    30895.641 
  920000    294.36437   -13622.046            0   -11836.447    280.21898    30649.058 
  930000    298.09463   -13613.355            0   -11805.128    302.47667    30546.275 
  940000    305.00118   -13582.679            0   -11732.557    32.499417    30359.881 
  950000    295.84042   -13561.481            0   -11766.929   -126.82595    30688.308 
  960000    299.95962   -13646.906            0   -11827.367   -309.75888     30604.82 
  970000    299.37948   -13681.883            0   -11865.863   -290.15886    30507.177 
  980000    305.54436   -13605.804            0   -11752.388    745.94769    30679.849 
  990000    290.17441   -13622.064            0   -11861.881   -568.63985    30582.786 
 1000000    295.00422   -13590.763            0   -11801.283    418.51383    30833.233 
 1010000    298.54332   -13573.797            0   -11762.849    317.69823    30400.352 
 1020000    296.82868   -13602.952            0   -11802.404    578.34952    30519.368 
 1030000    295.34309   -13628.593            0   -11837.057    741.09809     30528.24 
 1040000    306.68949    -13662.24            0   -11801.877     427.3137    30417.423 
 1050000    301.45647   -13649.182            0   -11820.562   -397.59373     30543.76 
 1060000     305.6849   -13531.803            0   -11677.534   -253.89629    30762.335 
 1070000    307.37916   -13625.618            0   -11761.072     403.2044    30514.121 
 1080000    298.85242   -13613.384            0    -11800.56   -523.79486    30210.141 
 1090000     290.4351   -13568.955            0   -11807.191   -83.430841    30652.588 
 1100000    293.08701     -13635.3            0   -11857.449     129.3585    30412.528 
 1110000    301.08786   -13612.797            0   -11786.414    145.94292    30260.627 
 1120000    302.08553    -13625.37            0   -11792.935    79.590064    30756.095 
 1130000    295.53579   -13634.383            0   -11841.678    230.55431    30157.377 
 1140000    302.79597   -13515.003            0   -11678.258    414.31243    30638.786 
 1150000    306.97751   -13685.637            0   -11823.527     405.6559    30055.324 
 1160000    298.38835   -13591.548            0    -11781.54    3.1778286    30516.139 
 1170000    298.30661   -13605.004            0   -11795.492   -147.69434    30546.314 
 1180000    303.29809   -13548.048            0   -11708.258    54.137163    30885.777 
 1190000    292.35012   -13611.551            0   -11838.171   -320.50547    30888.573 
 1200000    303.66698    -13624.78            0   -11782.752    401.78988    30197.949 
 1210000    287.31096   -13613.402            0   -11870.588   -345.98082     30683.36 
 1220000    290.69341   -13621.098            0   -11857.767   -240.22239    30306.742 
 1230000    297.75003   -13670.599            0   -11864.463   -106.73259    30310.879 
 1240000    300.38027   -13699.862            0   -11877.771    382.27994    30148.403 
 1250000    291.89614   -13614.249            0   -11843.622    269.07107    30541.244 
 1260000    314.01549   -13614.773            0   -11709.971    253.59216    30405.361 
 1270000    293.94671     -13548.5            0   -11765.434    115.45394    31026.086 
 1280000    297.41175   -13562.174            0    -11758.09   -13.946641    31291.825 
 1290000     304.4166   -13642.856            0   -11796.281   -244.30977    30930.518 
 1300000    299.40109   -13650.481            0   -11834.329    324.78609    30615.376 
 1310000    296.39237   -13457.709            0   -11659.808    49.975827    30394.488 
 1320000    297.81969    -13578.73            0   -11772.171    805.68326    30668.231 
 1330000    299.07345   -13532.094            0    -11717.93   -170.98796    31626.504 
 1340000    294.96461   -13644.253            0   -11855.013   -318.35657    30415.615 
 1350000    290.88066   -13696.919            0   -11932.452   -295.03966     30640.06 
 1360000    294.20746   -13633.681            0   -11849.034   -542.77885     30565.44 
 1370000    305.78527   -13498.412            0   -11643.534     27.58681    30314.827 
 1380000    292.98334   -13458.772            0    -11681.55   -982.75759     31245.05 
 1390000    297.41263   -13553.998            0   -11749.908   -17.864112    30676.885 
 1400000    303.38211   -13596.481            0   -11756.181    188.59509    30859.565 
 1410000    303.62077   -13632.487            0   -11790.739    682.55108    30322.923 
 1420000     295.1887   -13638.421            0   -11847.821   -164.37591    30786.106 
 1430000    299.97295   -13597.528            0   -11777.908    677.40697    30360.925 
 1440000    300.51944   -13671.308            0   -11848.372   -440.47696    30414.042 
 1450000    299.34437   -13606.016            0   -11790.208    469.63847    30368.619 
 1460000    305.04129   -13538.861            0   -11688.496   -849.88899    31427.314 
 1470000    290.79703    -13545.83            0    -11781.87     485.5665     30292.18 
 1480000    302.82734   -13607.113            0   -11770.178    140.15687    30535.006 
 1490000    304.20177   -13662.854            0   -11817.582   -783.41892    30745.617 
 1500000    292.28085   -13577.306            0   -11804.345    1035.6808    30704.517 
 1510000     304.5225   -13632.463            0   -11785.245    949.55287    30472.097 
 1520000    294.94755   -13638.216            0   -11849.079   -188.73658    30872.044 
 1530000    295.94683   -13554.207            0   -11759.008   -268.38619    30888.321 
 1540000    298.86446   -13645.391            0   -11832.494    555.14927    30504.657 
 1550000    292.40202   -13662.548            0   -11888.852    1546.6533    30014.048 
 1560000    293.31421    -13620.42            0   -11841.191    493.80275    30163.172 
 1570000    294.49449   -13640.199            0    -11853.81    74.377759    30308.756 
 1580000    292.25741   -13475.668            0    -11702.85   -385.55524    30994.961 
 1590000     300.2581   -13600.616            0   -11779.266   -24.344146    30703.019 
 1600000    291.22594   -13585.561            0       -11819   -737.39064    30504.782 
 1610000    308.85576   -13519.976            0   -11646.473    421.47258     30225.11 
 1620000     297.8802    -13597.94            0   -11791.014    162.21369    30568.269 
 1630000     299.3508   -13613.464            0   -11797.617    129.41562    30457.548 
 1640000    302.99687   -13597.908            0   -11759.945    -400.1611    31361.852 
 1650000    290.03062   -13613.601            0    -11854.29   -241.08142    30386.992 
 1660000    297.12155   -13599.149            0   -11796.825    67.588549     30949.65 
 1670000    298.43382   -13609.383            0   -11799.099   -19.852872    30457.543 
 1680000    297.03654   -13576.507            0   -11774.699    202.41356    30395.927 
 1690000    305.58557    -13536.84            0   -11683.174   -274.91164    30641.918 
 1700000     296.7537   -13581.558            0   -11781.466    139.08837    30193.845 
 1710000    297.81877   -13706.182            0   -11899.629    475.27826    29928.569 
 1720000    294.86423   -13613.742            0   -11825.111    582.51208    30450.932 
 1730000    303.66692   -13678.817            0   -11836.789    151.86169    30698.049 
 1740000    306.33496   -13581.761            0   -11723.549    -802.1695    30796.441 
 1750000    303.17596   -13595.184            0   -11756.135    1163.0744    30598.735 
 1760000    299.64252   -13590.985            0   -11773.369   -25.308443     30247.53 
 1770000     293.2156    -13582.44            0   -11803.809   -230.01798    31065.355 
 1780000    295.74459   -13564.693            0   -11770.721    334.39291    30547.866 
 1790000    295.58222   -13614.138            0   -11821.151   -12.034415    30200.383 
 1800000    290.44099   -13557.644            0   -11795.843   -240.23199    30471.737 
 1810000    295.21285   -13486.059            0   -11695.313    179.55654    30540.283 
 1820000    296.60891   -13541.115            0     -11741.9    53.821769    30431.508 
 1830000    288.62364   -13682.581            0   -11931.805      472.406    30289.312 
 1840000    286.80432   -13518.351            0   -11778.611    216.49234    30684.439 
 1850000    292.82847   -13642.579            0   -11866.297   -636.06293     30487.33 
 1860000    291.95264   -13581.436            0   -11810.467    22.073708    30889.937 
 1870000    298.66751   -13526.094            0   -11714.392   -128.18985    30681.902 
 1880000    303.63737   -13603.904            0   -11762.056    453.21418    30319.946 
 1890000    308.11441   -13625.971            0   -11756.965   -317.14221    31225.617 
 1900000    294.75229   -13588.539            0   -11800.586   -31.932088    30638.262 
 1910000    303.58291   -13544.897            0   -11703.379    179.63726    30719.951 
 1920000     295.5622   -13542.678            0   -11749.813   -102.24882    30327.212 
 1930000    306.05943   -13554.748            0   -11698.207   -546.68963    30808.582 
 1940000    294.73726    -13599.24            0   -11811.379   -339.80257    30236.226 
 1950000    293.63738     -13779.5            0   -11998.311   -85.658869    30891.672 
 1960000    308.20026   -13668.984            0   -11799.457    -460.4233     30415.62 
 1970000    298.41142   -13472.633            0   -11662.485   -464.06548    30965.825 
 1980000    298.63338   -13656.713            0   -11845.219   -757.02666    30686.117 
 1990000    300.20967   -13598.011            0   -11776.955   -692.19692    30830.797 
 2000000    298.17155    -13641.79            0   -11833.097   -26.792914    30781.352 
 2010000    301.42368   -13589.122            0   -11760.702    307.74207    30250.574 
 2020000    298.95791   -13628.785            0   -11815.322    -664.3395    30639.537 
 2030000    299.22215   -13619.245            0   -11804.179   -200.53339    30512.499 
 2040000    297.87355   -13603.225            0    -11796.34   -422.87786     30832.77 
 2050000    296.66853   -13630.069            0   -11830.493    740.65773    30256.672 
 2060000    302.65674   -13649.216            0   -11813.316   -583.21165    30595.998 
 2070000    306.44085   -13595.902            0   -11737.048   -123.06034    30267.921 
 2080000    296.34491   -13517.124            0   -11719.511   -532.45663    30792.502 
 2090000    293.61777   -13586.328            0   -11805.258    38.080242    30361.485 
 2100000    292.47386   -13592.837            0   -11818.705    562.99795    30118.191 
 2110000     299.6469    -13634.17            0   -11816.528   -703.14182    30485.908 
 2120000    298.66928   -13628.434            0   -11816.722    446.54173    30482.822 
 2130000    295.63113   -13657.672            0   -11864.389   -270.12272     30930.45 
 2140000    299.97746    -13613.47            0   -11793.822    384.72772    30337.183 
 2150000    288.08008   -13529.153            0   -11781.675    477.81517    30913.733 
 2160000    301.49507   -13638.149            0   -11809.296   -5.6736167    30534.883 
 2170000    292.14308   -13698.184            0   -11926.059   -516.58935    30860.767 
 2180000    293.19282   -13640.267            0   -11861.774    731.60518     30064.13 
 2190000    300.13224   -13601.589            0   -11781.002    393.86487    30890.618 
 2200000    299.77632   -13678.024            0   -11859.596    876.31313    30834.418 
 2210000    301.44347   -13598.597            0   -11770.056   -83.967056    30505.136 
 2220000    288.50374   -13540.445            0   -11790.396   -282.94412    30526.578 
 2230000    303.89279   -13564.838            0   -11721.441    752.32509      30715.2 
 2240000     292.9651   -13680.453            0   -11903.341    115.43818    30209.323 
 2250000    299.58237   -13564.608            0   -11747.357    209.60542    30342.075 
 2260000    293.35061   -13604.768            0   -11825.318    296.74524    30493.074 
 2270000    295.11676   -13557.957            0   -11767.794   -220.11978    30969.273 
 2280000    306.64903   -13644.963            0   -11784.846   -658.42858    30746.493 
 2290000    295.75437   -13510.688            0   -11716.657   -131.77129    30945.611 
 2300000    303.50603   -13627.453            0   -11786.401   -455.85018    30920.875 
 2310000    292.97877   -13616.682            0   -11839.488    312.02621     31050.23 
 2320000    294.70003   -13594.518            0   -11806.883    388.69361    30586.664 
 2330000    297.30697   -13641.501            0   -11838.053    720.72767     30283.92 
 2340000    305.19262    -13517.17            0   -11665.887    25.399959    30549.548 
 2350000    295.42581   -13591.547            0   -11799.509   -119.83728    30626.028 
 2360000    302.47445   -13622.735            0    -11787.94   -221.24787    30681.457 
 2370000    296.08493    -13570.82            0   -11774.784   -182.06338    30771.027 
 2380000     301.6915   -13645.246            0   -11815.201   -391.43271    30757.707 
 2390000    291.71059   -13627.906            0   -11858.405    478.76175    30770.502 
 2400000    299.08725   -13631.135            0   -11816.887    -70.05805    30643.425 
 2410000    296.98331   -13641.555            0   -11840.069   -683.41233    30736.909 
 2420000    290.38955   -13599.109            0   -11837.621    198.76112    30387.494 
 2430000    302.98023   -13566.761            0   -11728.899   -597.37137    30767.728 
 2440000     287.9876   -13590.493            0   -11843.575    279.00478     30166.25 
 2450000     296.5186   -13709.797            0    -11911.13     709.9939    30173.958 
 2460000    294.35455   -13532.772            0   -11747.232    151.85687    30675.156 
 2470000    293.67657   -13543.502            0   -11762.075    503.22444    30493.239 
 2480000    296.11632   -13668.036            0   -11871.809   -431.66551    30336.182 
 2490000    302.44223   -13519.558            0   -11684.959    103.89418    30467.735 
 2500000    298.98722   -13655.572            0   -11841.931   -599.06131    30920.191 
 2510000    294.13959   -13589.631            0   -11805.396   -227.06102    31142.159 
 2520000    296.58003   -13525.943            0   -11726.904    -164.0787    30407.685 
 2530000    293.64726   -13765.864            0   -11984.615   -14.658263    30475.241 
 2540000    297.98096   -13712.572            0   -11905.035    357.45868    30568.139 
 2550000      306.314   -13594.637            0   -11736.552   -456.65543    30859.314 
 2560000    299.66189   -13533.078            0   -11715.344   -231.02099    31026.988 
 2570000    299.51426   -13604.462            0   -11787.624    635.17015    30301.007 
 2580000    304.91799   -13611.501            0   -11761.884   -632.18476    30887.259 
 2590000    293.29583   -13512.094            0   -11732.977    148.25625    30435.817 
 2600000    299.57467   -13566.061            0   -11748.856    527.36841    30698.108 
 2610000    299.50025   -13585.355            0   -11768.602    252.29054    30626.997 
 2620000    301.68507    -13552.54            0   -11722.534    403.97566    30747.938 
 2630000    302.57403   -13582.941            0   -11747.543    161.88643    30321.363 
 2640000    314.35117   -13486.399            0   -11579.561    -950.5048     31041.76 
 2650000    295.98955   -13565.182            0   -11769.725    802.62609    30377.626 
 2660000    300.91512   -13635.999            0   -11810.664   -44.526667    30766.876 
 2670000     299.0399   -13600.603            0   -11786.642    617.36387     30572.53 
 2680000     299.5389   -13612.092            0   -11795.105   -393.87947    30800.758 
 2690000    299.40653    -13519.15            0   -11702.966   -97.298813    30750.328 
 2700000    296.67543   -13597.007            0   -11797.389     273.8841      30328.8 
 2710000    300.91834   -13540.832            0   -11715.476    438.96928    30480.279 
 2720000    303.04699   -13593.715            0   -11755.448   -1599.8518    30845.871 
 2730000    290.48315   -13614.319            0   -11852.263   -101.52791    30839.576 
 2740000    296.21057   -13650.228            0    -11853.43   -88.450728      30810.3 
 2750000     290.8001   -13473.928            0    -11709.95    228.58381    30892.516 
 2760000    291.16925   -13573.646            0   -11807.428    389.14868    30809.813 
 2770000    299.11083   -13670.463            0   -11856.072   -147.57343    30689.052 
 2780000    305.72502   -13526.994            0   -11672.482   -50.408484    30368.562 
 2790000    296.70276   -13678.789            0   -11879.006   -506.52527    30551.146 
 2800000      302.029     -13577.4            0   -11745.308   -644.74907     30593.17 
 2810000    292.97934   -13696.645            0   -11919.448    199.95336    30716.689 
 2820000    295.12744   -13564.854            0   -11774.626   -749.59317    30448.438 
 2830000    296.70475   -13665.973            0   -11866.177    380.30469    30151.757 
 2840000    292.51726   -13577.092            0   -11802.698    -129.2777    30640.589 
 2850000    304.34619   -13627.397            0   -11781.249   -51.326676    30722.601 
 2860000    282.86388   -13546.866            0   -11831.028    368.39233    30403.053 
 2870000    292.55611   -13636.873            0   -11862.243    510.14935    30220.018 
 2880000    298.36106   -13619.899            0   -11810.056   -213.64135    30646.617 
 2890000    303.31468   -13593.477            0   -11753.586   -488.65172     30586.34 
 2900000    291.88598   -13448.518            0   -11677.953   -913.88879    30858.034 
 2910000    300.52051   -13657.503            0   -11834.561    915.86632    30328.623 
 2920000    291.60201    -13691.84            0   -11922.997    374.54882    30460.848 
 2930000     296.6758   -13501.236            0   -11701.616    148.80272    30679.459 
 2940000    293.51328   -13683.692            0   -11903.255    -86.37032    30352.008 
 2950000    302.73048   -13552.943            0   -11716.596    23.689691    30754.363 
 2960000    291.77881   -13637.069            0   -11867.154    380.79178    30615.131 
 2970000    300.99852   -13602.361            0    -11776.52    -512.4397    30747.888 
 2980000    297.64084    -13673.88            0   -11868.406    153.94666    30642.155 
 2990000    302.43367   -13631.025            0   -11796.478    152.77462     30602.83 
 3000000    290.91571   -13639.193            0   -11874.513    474.22433    30967.174 
 3010000    300.31408   -13620.383            0   -11798.693   -1015.4826    31063.825 
 3020000    296.95999    -13614.93            0   -11813.586    158.43751     30079.38 
 3030000    291.56498   -13608.851            0   -11840.233    306.27228    30584.426 
 3040000    292.64604    -13597.18            0   -11822.004    348.81051    30532.416 
 3050000    301.45893   -13581.359            0   -11752.725   -260.89236    30876.587 
 3060000    300.87481   -13537.908            0   -11712.817   -570.39478    30873.812 
 3070000    303.10905   -13584.404            0    -11745.76    519.18658    30566.689 
 3080000    294.82153   -13603.743            0   -11815.371   -320.87518    30416.727 
 3090000    285.43093   -13660.991            0   -11929.582   -481.90273    30684.787 
 3100000     305.6301   -13651.177            0    -11797.24   -373.84017    30999.887 
 3110000    297.68047   -13547.374            0   -11741.659    337.65299    30277.562 
 3120000    300.18645   -13638.292            0   -11817.376     778.3778    30335.239 
 3130000    301.77148   -13571.659            0   -11741.129    456.53387    30750.413 
 3140000    302.85023   -13493.459            0   -11656.385    201.71831    30198.666 
 3150000    292.70661   -13643.776            0   -11868.233    259.14274    30565.985 
 3160000    303.85409   -13578.916            0   -11735.752   -879.32326    30514.399 
 3170000     295.8526   -13498.421            0   -11703.794   -781.75141    30784.566 
 3180000    290.23268    -13582.16            0   -11821.623    476.12078    30310.842 
 3190000    298.77257   -13605.629            0    -11793.29    715.64949    30374.529 
 3200000    293.59845    -13561.79            0   -11780.836   -1496.7689    31231.864 
 3210000    298.47419    -13647.72            0   -11837.191    387.87533    30504.543 
 3220000    294.22307   -13613.241            0   -11828.499   -24.674461    30211.675 
 3230000    298.58852   -13550.833            0   -11739.611    209.83466    30467.921 
 3240000     299.0447   -13498.809            0    -11684.82   -93.751139     30695.68 
 3250000    302.14431   -13678.532            0    -11845.74    804.06793     30158.33 
 3260000     295.5581   -13528.644            0   -11735.804   -801.68243    30557.643 
 3270000    289.45052   -13594.559            0   -11838.767    68.401969     30164.36 
 3280000    298.01715   -13612.733            0   -11804.976   -410.75073    30708.571 
 3290000    290.91163   -13604.845            0    -11840.19    122.59138    30287.628 
 3300000    297.48964   -13638.564            0   -11834.007    485.79521    30488.755 
 3310000    291.24353   -13624.313            0   -11857.645    471.81395    30528.974 
 3320000    303.77748   -13603.633            0   -11760.935   -155.45645    30702.904 
 3330000    302.88772   -13564.181            0    -11726.88    20.846909      30519.2 
 3340000    288.61619   -13706.276            0   -11955.545   -92.065873    30132.289 
 3350000    299.58888   -13717.012            0   -11899.721   -52.895655    30729.349 
 3360000    299.18486   -13568.051            0   -11753.211   -41.137142    30769.993 
 3370000    291.86751   -13607.623            0    -11837.17    246.07009    30655.788 
 3380000    302.76684   -13614.577            0   -11778.009    5.4250428    30790.062 
 3390000    296.76721   -13656.936            0   -11856.761   -52.581283    30283.201 
 3400000    304.53858   -13660.903            0   -11813.587    391.27159    30580.894 
 3410000    295.42065   -13587.591            0   -11795.585   -148.14616    30560.666 
 3420000    299.73475   -13590.113            0   -11771.938   -820.81071    30743.878 
 3430000    293.55487   -13545.903            0   -11765.214   -232.93291    30700.284 
 3440000     304.7038   -13619.806            0   -11771.488    177.44709    30259.497 
 3450000    296.48957   -13651.725            0   -11853.235    -476.3841    30626.694 
 3460000    297.82478   -13642.657            0   -11836.067   -563.76095    30740.884 
 3470000    300.92102   -13609.342            0   -11783.971   -477.04405    30620.619 
 3480000    302.12298   -13568.081            0   -11735.419   -464.13852    31088.302 
 3490000    295.18547   -13623.754            0   -11833.174    -177.2503    30895.522 
 3500000    308.06391   -13518.875            0   -11650.175   -28.747023    30631.425 
 3510000    294.28404   -13654.877            0   -11869.765    17.211072    30653.939 
 3520000     296.2634    -13652.93            0   -11855.811     77.36116    30850.749 
 3530000     295.3016   -13624.478            0   -11833.194   -697.10209    30693.128 
 3540000    297.03867    -13585.48            0   -11783.659    384.94498    30225.937 
 3550000    294.52947   -13555.132            0   -11768.532    406.29603    30662.722 
 3560000     303.4307    -13670.72            0   -11830.125   -125.51635     31221.34 
 3570000    295.97512   -13532.817            0   -11737.447    777.94056    30246.263 
 3580000    290.84958   -13675.749            0    -11911.47   -209.87627    30731.092 
 3590000      302.028   -13609.349            0   -11777.262    193.97948    30378.308 
 3600000    305.50789   -13665.414            0   -11812.219   -412.70901    30535.442 
 3610000    294.01746    -13608.95            0   -11825.455   0.26745404    30745.473 
 3620000    298.55252   -13710.123            0   -11899.118   -4.2181088     30486.13 
 3630000    295.98623   -13601.617            0    -11806.18    314.01949    30695.732 
 3640000     288.8191    -13555.48            0   -11803.519   -298.35192    30441.876 
 3650000    294.28481   -13527.169            0   -11742.052   -424.52686    30898.755 
 3660000    297.80175   -13569.666            0   -11763.216   -559.37375    30470.689 
 3670000     295.3501   -13605.572            0   -11813.994   -210.41595    30623.668 
 3680000    300.48348   -13497.316            0   -11674.598   -74.683923     30725.92 
 3690000    300.83253   -13671.975            0    -11847.14    450.10772     30472.29 
 3700000    293.53022   -13534.653            0   -11754.114   -90.454713    30357.817 
 3710000    293.62152   -13553.135            0   -11772.042    -86.24068    30222.654 
 3720000      303.904   -13587.579            0   -11744.113    36.478077    30881.272 
 3730000    291.55336   -13598.284            0   -11829.736   -219.35885    30585.185 
 3740000    293.41841   -13639.732            0   -11859.871   -289.39198    30424.989 
 3750000    286.62161    -13702.31            0   -11963.679    77.500614    30570.704 
 3760000    298.43586   -13562.462            0   -11752.165   -439.96777    30445.131 
 3770000    299.29689   -13570.053            0   -11754.534     1139.082    30429.753 
 3780000     297.2507   -13622.574            0   -11819.467   -140.47494    30546.715 
 3790000    291.90099   -13663.707            0    -11893.05     462.9234    30125.951 
 3800000    313.39348   -13614.734            0   -11713.706   -258.26526    30784.489 
 3810000    289.62081    -13650.41            0   -11893.585   -522.98125     30860.21 
 3820000    294.08238   -13534.443            0   -11750.555   -261.59248    30487.972 
 3830000    305.13927   -13532.596            0   -11681.637   -191.41745    30704.483 
 3840000    300.29216   -13538.032            0   -11716.475    921.99767    30558.444 
 3850000    290.16983   -13524.484            0   -11764.329   -255.88014    30918.046 
 3860000    307.63668   -13529.663            0   -11663.555    191.99085    30507.487 
 3870000    295.80606   -13497.754            0    -11703.41   -564.33376    30914.362 
 3880000    296.44948    -13662.54            0   -11864.293     91.14637    30736.969 
 3890000    292.94205   -13543.883            0   -11766.912    134.10408    30691.789 
 3900000    307.37418   -13529.942            0   -11665.426    240.90103     30533.15 
 3910000    305.36501   -13644.073            0   -11791.744    2.7836057    30481.779 
 3920000    301.37252   -13648.579            0   -11820.468    646.93566    30319.759 
 3930000    308.12957   -13606.333            0   -11737.235    341.40501    30367.846 
 3940000    283.24239   -13531.227            0   -11813.093   -1030.3459    30887.879 
 3950000    302.72959   -13559.011            0   -11722.669   -267.06695    30652.955 
 3960000    294.82641   -13559.178            0   -11770.776   -153.16813     30275.13 
 3970000     305.4043   -13564.859            0   -11712.292     169.5553    30758.369 
 3980000    283.92038   -13436.304            0   -11714.057   -493.81037    30544.264 
 3990000    315.94623   -13593.002            0   -11676.488   -206.26214      30831.9 
 4000000    301.39847   -13593.485            0   -11765.217    538.26445    30500.094 
 4010000    292.30131   -13551.555            0    -11778.47   -311.48462     30576.51 
 4020000    291.85794   -13611.773            0   -11841.378     96.38314    30771.709 
 4030000     293.0791    -13596.38            0   -11818.577     129.7593    30279.066 
 4040000    308.52507   -13533.073            0   -11661.576    164.81764    30556.161 
 4050000    300.68257   -13578.525            0     -11754.6    540.45066    30813.674 
 4060000    291.82675   -13593.705            0   -11823.499    -208.3453    30266.302 
 4070000    302.06172   -13663.637            0   -11831.346   -764.75645    30626.744 
 4080000    297.08559   -13631.917            0   -11829.811   -140.71105    30505.628 
 4090000    299.76588   -13648.413            0   -11830.049    419.28523    30784.285 
 4100000    294.92971   -13562.043            0   -11773.015    -255.5534    30655.243 
 4110000    297.56057   -13584.461            0   -11779.474   -73.891574    31037.166 
 4120000    302.08735    -13659.29            0   -11826.844    492.74639    30160.944 
 4130000    308.19006    -13641.24            0   -11771.775    8.5104241     30435.66 
 4140000    299.78142   -13577.414            0   -11758.955    255.37273    30302.078 
 4150000    300.87963   -13587.731            0   -11762.611   -237.66703    30274.094 
 4160000    299.55766   -13477.033            0   -11659.932    74.256127    30636.317 
 4170000    296.07878   -13665.255            0   -11869.256   -310.48301     30936.84 
 4180000    294.30163   -13679.456            0   -11894.237   -376.15941     30575.58 
 4190000    297.13421   -13604.101            0     -11801.7   -489.84998    30634.028 
 4200000    294.87249   -13639.261            0   -11850.579   -1002.8592    30597.528 
 4210000    295.42266   -13643.849            0   -11851.831    -88.24597    30628.696 
 4220000    299.28517   -13588.046            0   -11772.598   -879.56215    31052.008 
 4230000    300.04878   -13638.327            0   -11818.247    1091.4417    29767.083 
 4240000    295.14267   -13574.348            0   -11784.027    488.88443    30505.961 
 4250000    290.75804       -13542            0   -11778.277     379.0615    30711.377 
 4260000    293.20777   -13562.262            0   -11783.679   -525.44304    30396.757 
 4270000    292.33251   -13642.216            0   -11868.942   -80.951927    30362.796 
 4280000    295.76349   -13525.631            0   -11731.545   -648.26913    30884.334 
 4290000    299.41743   -13615.224            0   -11798.973   -106.43647    30418.258 
 4300000    296.13652   -13562.687            0   -11766.339    313.98293    30258.441 
 4310000    303.36645   -13611.867            0   -11771.661     153.8721    31006.326 
 4320000    296.63903   -13591.819            0   -11792.422    540.57115    30425.333 
 4330000     292.6072   -13654.664            0   -11879.724    466.57898    30299.714 
 4340000    295.04106   -13530.581            0   -11740.877   -384.22646     31193.73 
 4350000    295.62966   -13573.047            0   -11779.773   -235.01032    30517.136 
 4360000    299.48067   -13635.662            0   -11819.028   -686.35547    30727.815 
 4370000    303.45609   -13516.939            0    -11676.19   -441.54784    30556.573 
 4380000    297.54576   -13573.839            0   -11768.942   -618.71266     30496.01 
 4390000    300.82184   -13589.441            0   -11764.671    44.880772    30651.326 
 4400000     307.8304   -13504.312            0   -11637.028   -748.45169    31053.111 
 4410000    290.42183   -13572.711            0   -11811.028   -501.03698    30836.916 
 4420000    305.89463    -13591.79            0   -11736.249     867.0411    30456.796 
 4430000    304.26079   -13644.884            0   -11799.253    105.31351    30549.808 
 4440000    303.70666   -13553.992            0   -11711.723   -714.70212    31109.784 
 4450000    301.64734   -13551.225            0   -11721.448   -691.00998    31063.656 
 4460000    298.15674   -13609.774            0    -11801.17    507.41909    30249.433 
 4470000    289.37294   -13597.536            0   -11842.215   -25.662955    30857.383 
 4480000    298.38038   -13618.126            0   -11808.166   -294.42935    30556.091 
 4490000    302.88219   -13550.936            0   -11713.669    881.48107    30278.941 
 4500000    299.89437   -13436.562            0   -11617.419   -21.279399    30331.115 
 4510000    299.51679   -13563.591            0   -11746.738   -372.26109    30893.611 
 4520000    292.82883   -13554.795            0    -11778.51    52.185816    30753.958 
 4530000     300.0502   -13606.342            0   -11786.253    387.42902    30798.913 
 4540000    300.76817    -13606.42            0   -11781.976    430.68492    30244.092 
 4550000     298.0834   -13555.202            0   -11747.043   -42.380575    30553.945 
 4560000    299.66786    -13542.82            0    -11725.05   -28.726148    30672.803 
 4570000    299.77215   -13596.403            0   -11778.001    97.453614    30398.749 
 4580000    290.65515   -13661.389            0    -11898.29     529.2768    30479.847 
 4590000    299.96422   -13615.957            0   -11796.389    916.56399     30250.87 
 4600000    292.78704   -13510.113            0   -11734.082   -1151.8716    30655.278 
 4610000    299.46134   -13635.533            0   -11819.016    381.28304    30699.653 
 4620000    309.13066   -13516.756            0   -11641.585   -502.53449    31008.091 
 4630000    291.44036   -13585.376            0   -11817.513   -1.3192074    30227.203 
 4640000    299.65862   -13590.895            0   -11773.181   -639.70666    30975.677 
 4650000    303.05766   -13565.884            0   -11727.552   -286.28175    30614.316 
 4660000    297.73922    -13438.26            0    -11632.19   -498.58007    30927.731 
 4670000    293.81174   -13587.579            0   -11805.332    111.48917    30595.463 
 4680000      310.849   -13575.605            0   -11690.011   -191.31966    30719.662 
 4690000    301.13335   -13686.864            0   -11860.205   -708.79438    30633.831 
 4700000    298.35686   -13578.035            0   -11768.218   -32.360844    30161.992 
 4710000    294.46486   -13658.085            0   -11871.877   -460.43171    30548.247 
 4720000    292.83928   -13668.549            0   -11892.201    552.53906    30479.734 
 4730000    303.61905    -13562.41            0   -11720.672   -65.194494    30595.525 
 4740000    299.22715   -13631.602            0   -11816.506   -154.09944    30444.516 
 4750000    298.53802   -13650.257            0    -11839.34   -605.85539    30910.352 
 4760000    297.68991   -13606.187            0   -11800.415   -308.89235    30349.685 
 4770000    295.54535   -13571.305            0   -11778.543    93.830657    30276.212 
 4780000     295.9409   -13686.357            0   -11891.195   -88.561725    30734.781 
 4790000    295.52281   -13538.861            0   -11746.235    -201.6918    30984.291 
 4800000    310.77919    -13605.63            0   -11720.459    309.05182     30640.36 
 4810000    297.62582   -13571.749            0   -11766.366   -909.66392    30396.869 
 4820000    300.94026   -13510.954            0   -11685.466     357.6452    30530.332 
 4830000    298.08411   -13568.936            0   -11760.773    125.83734    30397.018 
 4840000    303.51572   -13596.997            0   -11755.886   -571.81755    30931.773 
 4850000    295.34412   -13581.971            0   -11790.429    640.52044     30388.99 
 4860000    308.35987   -13533.418            0   -11662.923    -102.4788    30458.231 
 4870000    300.83145   -13593.442            0   -11768.614    234.25881    30208.988 
 4880000    294.66222   -13629.337            0   -11841.931   -266.78541    30643.931 
 4890000    303.70766   -13596.803            0   -11754.528    -637.3609    30842.152 
 4900000    296.17794   -13620.798            0   -11824.198    88.991469    30958.803 
 4910000    300.32569   -13572.022            0   -11750.262    528.28242    30603.836 
 4920000    300.46845   -13546.684            0   -11724.058    40.970341    30986.121 
 4930000    302.20246   -13552.497            0   -11719.352    510.87618    30163.082 
 4940000    295.25805   -13631.704            0   -11840.684    238.80319    30717.065 
 4950000    298.62135   -13476.276            0   -11664.854    610.87083    30821.745 
 4960000    303.18974    -13561.76            0   -11722.627    415.26864     31168.26 
 4970000    298.69543   -13574.381            0    -11762.51    1214.0403    30056.308 
 4980000    299.09604   -13541.752            0   -11727.451   -907.25845    31226.364 
 4990000    298.80858    -13585.65            0   -11773.093    260.05925    30406.386 
 5000000    289.10115   -13566.255            0   -11812.582   -239.66262    30741.944 
Loop time of 5227.05 on 128 procs for 5000000 steps with 3036 atoms

Performance: 165.294 ns/day, 0.145 hours/ns, 956.563 timesteps/s
99.3% CPU use with 128 MPI tasks x no OpenMP threads

MPI task timing breakdown:
Section |  min time  |  avg time  |  max time  |%varavg| %total
---------------------------------------------------------------
Pair    | 1166.5     | 1409.7     | 1631.4     | 297.8 | 26.97
Bond    | 0.48117    | 0.60346    | 1.057      |  11.4 |  0.01
Kspace  | 2121.5     | 2336.6     | 2561.3     | 224.8 | 44.70
Neigh   | 143.54     | 146.85     | 150.07     |  20.8 |  2.81
Comm    | 551.41     | 612.27     | 684.16     | 124.0 | 11.71
Output  | 0.043316   | 0.044583   | 0.045913   |   0.3 |  0.00
Modify  | 532.15     | 636.75     | 684.27     | 138.7 | 12.18
Other   |            | 84.25      |            |       |  1.61

Nlocal:    23.7188 ave 33 max 16 min
Histogram: 4 11 20 13 27 28 9 8 6 2
Nghost:    2961.55 ave 2997 max 2930 min
Histogram: 4 7 16 25 21 20 12 14 8 1
Neighs:    9134.07 ave 13706 max 5594 min
Histogram: 3 6 20 24 31 22 11 6 3 2

Total # of neighbors = 1169161
Ave neighs/atom = 385.099
Ave special neighs/atom = 1.97628
Neighbor list builds = 438184
Dangerous builds = 0
PPPM initialization ...
  extracting TIP4P info from pair style
  using 12-bit tables for long-range coulomb (../kspace.cpp:321)
  G vector (1/distance) = 0.312021
  grid = 30 30 30
  stencil order = 5
  estimated absolute RMS force accuracy = 0.00341301
  estimated relative force accuracy = 1.02782e-05
  using double precision FFTs
  3d grid and FFT values/proc = 2475 256
Setting up Verlet run ...
  Unit style    : real
  Current step  : 0
  Time step     : 2
Per MPI rank memory allocation (min/avg/max) = 8.201 | 8.213 | 8.22 Mbytes
Density 
   1.0299251 
   1.0476852 
   1.0338102 
   1.0365941 
   1.0439124 
   1.0281225 
   1.0312358 
   1.0360849 
   1.0409625 
   1.0278411 
   1.0370192 
   1.0341476 
   1.0332858 
   1.0354085 
   1.0340379 
   1.0410983 
   1.0411522 
   1.0325058 
   1.0534218 
   1.0245955 
   1.0306368 
   1.0396375 
   1.0358199 
   1.0237157 
   1.0264141 
   1.0462871 
    1.027103 
   1.0294175 
   1.0274081 
   1.0291215 
   1.0468615 
   1.0392345 
   1.0373596 
   1.0249548 
   1.0390792 
    1.023394 
   1.0301326 
   1.0470778 
    1.040848 
   1.0449783 
    1.035982 
   1.0303718 
    1.030277 
   1.0106531 
   1.0246176 
   1.0319652 
   1.0382491 
   1.0497431 
    1.042422 
   1.0310521 
   1.0275633 
   1.0269641 
   1.0367806 
   1.0370813 
   1.0256554 
   1.0425583 
   1.0568418 
   1.0332259 
   1.0436802 
   1.0347126 
   1.0429335 
   1.0386102 
    1.041049 
   1.0299494 
   1.0382759 
   1.0418936 
   1.0426444 
   1.0366786 
   1.0369432 
   1.0438376 
   1.0447976 
    1.040815 
   1.0230459 
   1.0349051 
   1.0350513 
   1.0380012 
   1.0392934 
   1.0227097 
   1.0403482 
   1.0138616 
   1.0292609 
   1.0267644 
   1.0342794 
   1.0324225 
   1.0490814 
   1.0300246 
   1.0212802 
   1.0256446 
    1.040078 
   1.0349536 
   1.0470951 
   1.0521382 
    1.041522 
   1.0224645 
   1.0361966 
   1.0440237 
   1.0296181 
   1.0305321 
   1.0389765 
   1.0561104 
     1.02968 
   1.0325087 
   1.0313328 
   1.0415724 
   1.0297627 
   1.0272901 
   1.0432241 
   1.0296761 
   1.0304737 
   1.0297078 
   1.0325738 
   1.0294821 
   1.0382836 
   1.0348384 
   1.0461377 
   1.0182699 
   1.0430724 
   1.0385327 
   1.0255898 
   1.0357136 
   1.0333704 
   1.0063587 
   1.0245232 
   1.0378012 
   1.0512267 
   1.0305169 
   1.0276186 
   1.0311052 
   1.0402157 
   1.0419774 
   1.0238559 
   1.0282756 
   1.0516247 
    1.017614 
     1.03026 
    1.020708 
   1.0331115 
   1.0425541 
   1.0274806 
   1.0493623 
   1.0196932 
   1.0402614 
   1.0305006 
   1.0335347 
   1.0432638 
   1.0218565 
    1.031478 
   1.0394805 
   1.0436059 
   1.0404067 
   1.0132353 
   1.0365152 
   1.0523219 
   1.0236715 
   1.0469293 
   1.0396231 
   1.0333404 
   1.0294804 
   1.0336234 
   1.0258169 
   1.0270356 
   1.0246404 
   1.0414097 
   1.0286488 
   1.0486176 
   1.0243176 
   1.0520492 
   1.0519444 
   1.0407435 
   1.0270806 
   1.0324638 
   1.0315277 
   1.0196995 
   1.0369056 
   1.0293742 
   1.0362004 
   1.0329576 
   1.0394266 
   1.0289012 
   1.0326031 
   1.0460672 
   1.0329285 
   1.0151689 
   1.0159192 
    1.048798 
   1.0301583 
   1.0478124 
   1.0405675 
   1.0312664 
   1.0126479 
   1.0321767 
   1.0445384 
   1.0127674 
     1.03128 
   1.0437488 
     1.02393 
    1.024563 
   1.0353492 
   1.0431566 
   1.0317824 
   1.0235087 
   1.0287017 
   1.0454705 
   1.0492915 
   1.0357112 
   1.0405938 
   1.0306585 
   1.0458477 
   1.0288237 
   1.0211465 
   1.0520034 
   1.0327002 
   1.0214569 
   1.0329817 
   1.0451053 
   1.0345165 
   1.0302812 
   1.0367584 
   1.0319761 
   1.0239128 
   1.0324237 
   1.0342387 
   1.0226013 
   1.0256875 
   1.0290742 
   1.0238461 
   1.0134802 
   1.0383453 
   1.0473446 
   1.0361577 
   1.0381207 
   1.0263495 
   1.0329632 
   1.0352385 
   1.0324551 
     1.03168 
   1.0081946 
   1.0175363 
     1.04112 
    1.037066 
   1.0423991 
    1.028236 
   1.0306762 
   1.0344356 
    1.038487 
    1.024978 
   1.0165395 
   1.0410305 
   1.0284953 
   1.0463215 
   1.0456232 
   1.0385972 
   1.0356589 
   1.0344325 
   1.0292102 
   1.0320735 
   1.0391229 
   1.0225752 
    1.034304 
   1.0456706 
   1.0321008 
   1.0235428 
    1.031161 
   1.0324289 
    1.036508 
   1.0259723 
    1.047549 
   1.0309507 
   1.0139559 
   1.0396721 
   1.0324041 
    1.036947 
   1.0352952 
   1.0524477 
   1.0464766 
   1.0306238 
   1.0312587 
   1.0271593 
   1.0496639 
   1.0341083 
   1.0311951 
   1.0356637 
   1.0364211 
   1.0457655 
   1.0397963 
   1.0481185 
   1.0378573 
    1.021492 
   1.0523891 
   1.0297859 
   1.0436454 
   1.0508365 
   1.0414981 
   1.0230424 
   1.0407677 
   1.0286361 
   1.0182948 
   1.0492995 
   1.0446082 
   1.0328606 
    1.049052 
   1.0359391 
   1.0333801 
   1.0347266 
   1.0301927 
   1.0351211 
   1.0349734 
   1.0338564 
   1.0303422 
   1.0459741 
   1.0347525 
   1.0331026 
   1.0289155 
   1.0354128 
   1.0400863 
   1.0241353 
   1.0333831 
    1.040406 
   1.0301599 
   1.0263673 
   1.0346392 
   1.0354027 
   1.0430337 
   1.0321309 
   1.0184769 
   1.0264013 
   1.0502026 
   1.0452847 
     1.04031 
   1.0194531 
   1.0377401 
   1.0304524 
   1.0382738 
   1.0281938 
   1.0430597 
   1.0430945 
   1.0268661 
   1.0403955 
   1.0428911 
    1.044687 
   1.0361607 
    1.034512 
   1.0268358 
   1.0250413 
   1.0461734 
   1.0589351 
   1.0364967 
   1.0365309 
    1.034148 
   1.0364771 
   1.0324705 
   1.0270148 
   1.0288864 
   1.0300117 
   1.0292915 
   1.0457537 
   1.0274906 
   1.0294323 
   1.0187777 
   1.0319407 
   1.0274337 
   1.0343767 
   1.0376777 
   1.0324918 
   1.0311942 
   1.0182063 
   1.0426066 
   1.0276403 
   1.0538166 
   1.0297325 
   1.0453173 
   1.0235513 
   1.0227467 
    1.031226 
   1.0403848 
   1.0287034 
   1.0512039 
   1.0305525 
   1.0413825 
   1.0289398 
   1.0379325 
   1.0418387 
   1.0364206 
   1.0252836 
    1.027659 
   1.0478328 
   1.0568272 
   1.0295914 
   1.0355361 
   1.0353707 
   1.0362107 
   1.0418607 
   1.0417078 
   1.0342214 
   1.0296074 
   1.0342751 
   1.0528627 
   1.0330887 
   1.0325561 
   1.0478842 
    1.037053 
   1.0365206 
   1.0510422 
   1.0213782 
    1.041857 
   1.0303107 
   1.0350272 
   1.0442512 
   1.0356991 
   1.0215884 
   1.0278761 
   1.0391151 
    1.028982 
   1.0391304 
    1.031759 
   1.0394258 
   1.0407688 
   1.0342646 
   1.0333551 
   1.0336803 
   1.0225113 
   1.0320091 
   1.0515339 
   1.0346984 
   1.0335737 
   1.0262962 
   1.0186404 
   1.0353932 
   1.0501498 
   1.0448041 
    1.029231 
   1.0402079 
   1.0323563 
   1.0122964 
   1.0446024 
   1.0345947 
   1.0461551 
   1.0138417 
   1.0457327 
   1.0521867 
    1.025706 
   1.0375854 
   1.0346735 
   1.0386179 
   1.0371541 
   1.0396195 
   1.0378108 
   1.0279903 
   1.0450758 
     1.02749 
   1.0147905 
   1.0508135 
   1.0305681 
    1.034382 
   1.0246253 
   1.0310095 
   1.0349681 
   1.0455788 
   1.0381643 
   1.0459213 
   1.0507988 
   1.0306891 
    1.055153 
   1.0297548 
   1.0324905 
   1.0339861 
   1.0374554 
   1.0265642 
   1.0462843 
   1.0219094 
   1.0449176 
    1.040083 
   1.0402932 
   1.0293359 
   1.0492017 
   1.0340191 
   1.0346522 
   1.0293291 
   1.0377869 
   1.0359308 
   1.0453979 
   1.0218121 
    1.039651 
   1.0196749 
   1.0153696 
   1.0437254 
   1.0399838 
   1.0190044 
   1.0212685 
   1.0202481 
   1.0445223 
   1.0220892 
    1.043823 
   1.0313802 
   1.0264798 
   1.0359597 
    1.026252 
   1.0405254 
   1.0474986 
    1.027344 
   1.0326487 
Loop time of 5262.31 on 128 procs for 5000000 steps with 3036 atoms

Performance: 164.186 ns/day, 0.146 hours/ns, 950.153 timesteps/s
99.3% CPU use with 128 MPI tasks x no OpenMP threads

MPI task timing breakdown:
Section |  min time  |  avg time  |  max time  |%varavg| %total
---------------------------------------------------------------
Pair    | 1167.2     | 1405.3     | 1618.1     | 298.1 | 26.70
Bond    | 0.46475    | 0.60394    | 1.1108     |  12.8 |  0.01
Kspace  | 2123.3     | 2329.2     | 2546.4     | 224.0 | 44.26
Neigh   | 143.4      | 146.76     | 150.02     |  21.4 |  2.79
Comm    | 546.8      | 609.52     | 680.75     | 127.8 | 11.58
Output  | 0.01642    | 0.022996   | 0.039246   |   2.2 |  0.00
Modify  | 582.15     | 685.96     | 733.59     | 134.0 | 13.04
Other   |            | 84.91      |            |       |  1.61

Nlocal:    23.7188 ave 34 max 15 min
Histogram: 1 7 18 19 31 24 14 11 2 1
Nghost:    2948.58 ave 2987 max 2920 min
Histogram: 3 9 22 23 33 17 8 9 3 1
Neighs:    9159.44 ave 13520 max 5318 min
Histogram: 3 9 20 14 27 21 17 7 8 2

Total # of neighbors = 1172408
Ave neighs/atom = 386.169
Ave special neighs/atom = 1.97628
Neighbor list builds = 438170
Dangerous builds = 0
Changing box ...
  orthogonal box = (0.613048 0.613048 0.613048) to (31.8926 31.9119 31.9119)
  orthogonal box = (0.613048 0.613048 0.613048) to (31.8926 31.8926 31.9119)
  orthogonal box = (0.613048 0.613048 0.613048) to (31.8926 31.8926 31.8926)
PPPM initialization ...
  extracting TIP4P info from pair style
  using 12-bit tables for long-range coulomb (../kspace.cpp:321)
  G vector (1/distance) = 0.312128
  grid = 30 30 30
  stencil order = 5
  estimated absolute RMS force accuracy = 0.00339786
  estimated relative force accuracy = 1.02325e-05
  using double precision FFTs
  3d grid and FFT values/proc = 2475 256
Setting up Verlet run ...
  Unit style    : real
  Current step  : 0
  Time step     : 0.001
Per MPI rank memory allocation (min/avg/max) = 8.201 | 8.213 | 8.22 Mbytes
Density 
   1.0345588 
   1.0345588 
Loop time of 8.29591 on 128 procs for 10000 steps with 3036 atoms

Performance: 0.104 ns/day, 230.442 hours/ns, 1205.413 timesteps/s
99.4% CPU use with 128 MPI tasks x no OpenMP threads

MPI task timing breakdown:
Section |  min time  |  avg time  |  max time  |%varavg| %total
---------------------------------------------------------------
Pair    | 1.0729     | 2.0981     | 3.0924     |  29.1 | 25.29
Bond    | 0.00075132 | 0.00090668 | 0.0016099  |   0.0 |  0.01
Kspace  | 3.2433     | 4.2166     | 5.213      |  20.0 | 50.83
Neigh   | 0          | 0          | 0          |   0.0 |  0.00
Comm    | 0.99568    | 1.0976     | 1.1706     |   3.9 | 13.23
Output  | 2.2302e-05 | 3.2554e-05 | 8.9768e-05 |   0.0 |  0.00
Modify  | 0.69978    | 0.76853    | 0.82701    |   3.8 |  9.26
Other   |            | 0.1142     |            |       |  1.38

Nlocal:    23.7188 ave 33 max 14 min
Histogram: 1 6 10 16 30 28 16 13 3 5
Nghost:    2956.54 ave 3006 max 2923 min
Histogram: 6 8 23 32 22 19 10 4 2 2
Neighs:    9181.35 ave 13321 max 4985 min
Histogram: 2 6 15 18 25 23 16 8 10 5

Total # of neighbors = 1175213
Ave neighs/atom = 387.093
Ave special neighs/atom = 1.97628
Neighbor list builds = 0
Dangerous builds = 0
PPPM initialization ...
  extracting TIP4P info from pair style
  using 12-bit tables for long-range coulomb (../kspace.cpp:321)
  G vector (1/distance) = 0.312128
  grid = 30 30 30
  stencil order = 5
  estimated absolute RMS force accuracy = 0.00339786
  estimated relative force accuracy = 1.02325e-05
  using double precision FFTs
  3d grid and FFT values/proc = 2475 256
Setting up Verlet run ...
  Unit style    : real
  Current step  : 10000
  Time step     : 0.01
Per MPI rank memory allocation (min/avg/max) = 8.201 | 8.213 | 8.22 Mbytes
Density 
   1.0345588 
   1.0345588 
Loop time of 8.1503 on 128 procs for 10000 steps with 3036 atoms

Performance: 1.060 ns/day, 22.640 hours/ns, 1226.949 timesteps/s
99.4% CPU use with 128 MPI tasks x no OpenMP threads

MPI task timing breakdown:
Section |  min time  |  avg time  |  max time  |%varavg| %total
---------------------------------------------------------------
Pair    | 1.1635     | 2.0985     | 3.0482     |  26.3 | 25.75
Bond    | 0.00076331 | 0.00089899 | 0.0014854  |   0.0 |  0.01
Kspace  | 3.1733     | 4.083      | 4.9874     |  18.4 | 50.10
Neigh   | 0.0012085  | 0.0012251  | 0.0012498  |   0.0 |  0.02
Comm    | 1.0028     | 1.1053     | 1.1715     |   3.6 | 13.56
Output  | 2.4836e-05 | 3.3855e-05 | 7.0813e-05 |   0.0 |  0.00
Modify  | 0.68387    | 0.75027    | 0.80476    |   3.6 |  9.21
Other   |            | 0.111      |            |       |  1.36

Nlocal:    23.7188 ave 33 max 15 min
Histogram: 5 8 10 21 22 20 22 12 4 4
Nghost:    2962.07 ave 3008 max 2922 min
Histogram: 7 11 11 22 23 19 12 13 5 5
Neighs:    9185.3 ave 13872 max 4870 min
Histogram: 3 5 16 20 26 24 18 8 6 2

Total # of neighbors = 1175718
Ave neighs/atom = 387.259
Ave special neighs/atom = 1.97628
Neighbor list builds = 4
Dangerous builds = 0
PPPM initialization ...
  extracting TIP4P info from pair style
  using 12-bit tables for long-range coulomb (../kspace.cpp:321)
  G vector (1/distance) = 0.312128
  grid = 30 30 30
  stencil order = 5
  estimated absolute RMS force accuracy = 0.00339786
  estimated relative force accuracy = 1.02325e-05
  using double precision FFTs
  3d grid and FFT values/proc = 2475 256
Setting up Verlet run ...
  Unit style    : real
  Current step  : 20000
  Time step     : 0.1
Per MPI rank memory allocation (min/avg/max) = 8.201 | 8.213 | 8.22 Mbytes
Density 
   1.0345588 
   1.0345588 
Loop time of 7.98264 on 128 procs for 10000 steps with 3036 atoms

Performance: 10.823 ns/day, 2.217 hours/ns, 1252.718 timesteps/s
99.4% CPU use with 128 MPI tasks x no OpenMP threads

MPI task timing breakdown:
Section |  min time  |  avg time  |  max time  |%varavg| %total
---------------------------------------------------------------
Pair    | 1.2371     | 2.1132     | 2.8518     |  21.8 | 26.47
Bond    | 0.000757   | 0.00090517 | 0.0015056  |   0.0 |  0.01
Kspace  | 3.1818     | 3.9096     | 4.773      |  15.7 | 48.98
Neigh   | 0.014441   | 0.014803   | 0.015063   |   0.1 |  0.19
Comm    | 1.0223     | 1.106      | 1.1893     |   3.7 | 13.85
Output  | 2.4747e-05 | 3.285e-05  | 6.6956e-05 |   0.0 |  0.00
Modify  | 0.64601    | 0.72625    | 0.78598    |   4.0 |  9.10
Other   |            | 0.1118     |            |       |  1.40

Nlocal:    23.7188 ave 32 max 13 min
Histogram: 1 5 3 13 17 35 31 14 5 4
Nghost:    2959.21 ave 2995 max 2924 min
Histogram: 6 7 15 12 20 24 25 8 6 5
Neighs:    9181.12 ave 12990 max 4825 min
Histogram: 5 2 6 14 29 26 16 17 11 2

Total # of neighbors = 1175183
Ave neighs/atom = 387.083
Ave special neighs/atom = 1.97628
Neighbor list builds = 46
Dangerous builds = 0
PPPM initialization ...
  extracting TIP4P info from pair style
  using 12-bit tables for long-range coulomb (../kspace.cpp:321)
  G vector (1/distance) = 0.312128
  grid = 30 30 30
  stencil order = 5
  estimated absolute RMS force accuracy = 0.00339786
  estimated relative force accuracy = 1.02325e-05
  using double precision FFTs
  3d grid and FFT values/proc = 2475 256
Setting up Verlet run ...
  Unit style    : real
  Current step  : 30000
  Time step     : 0.2
Per MPI rank memory allocation (min/avg/max) = 8.201 | 8.213 | 8.22 Mbytes
Density 
   1.0345588 
   1.0345588 
Loop time of 10.6949 on 128 procs for 10000 steps with 3036 atoms

Performance: 16.157 ns/day, 1.485 hours/ns, 935.026 timesteps/s
99.2% CPU use with 128 MPI tasks x no OpenMP threads

MPI task timing breakdown:
Section |  min time  |  avg time  |  max time  |%varavg| %total
---------------------------------------------------------------
Pair    | 1.4719     | 2.1207     | 2.7776     |  19.2 | 19.83
Bond    | 0.00076647 | 0.00090127 | 0.0014761  |   0.0 |  0.01
Kspace  | 4.9897     | 5.9388     | 6.6982     |  14.3 | 55.53
Neigh   | 0.028078   | 0.028561   | 0.028845   |   0.1 |  0.27
Comm    | 1.0543     | 1.5271     | 2.0142     |  19.9 | 14.28
Output  | 2.7702e-05 | 4.1559e-05 | 9.075e-05  |   0.0 |  0.00
Modify  | 0.79148    | 0.95496    | 1.2734     |  16.8 |  8.93
Other   |            | 0.1238     |            |       |  1.16

Nlocal:    23.7188 ave 33 max 14 min
Histogram: 1 3 8 13 33 28 34 6 0 2
Nghost:    2942.67 ave 2995 max 2911 min
Histogram: 10 21 26 14 18 19 10 4 2 4
Neighs:    9182.44 ave 12878 max 4806 min
Histogram: 2 3 7 15 27 25 26 12 6 5

Total # of neighbors = 1175352
Ave neighs/atom = 387.138
Ave special neighs/atom = 1.97628
Neighbor list builds = 88
Dangerous builds = 0
PPPM initialization ...
  extracting TIP4P info from pair style
  using 12-bit tables for long-range coulomb (../kspace.cpp:321)
  G vector (1/distance) = 0.312128
  grid = 30 30 30
  stencil order = 5
  estimated absolute RMS force accuracy = 0.00339786
  estimated relative force accuracy = 1.02325e-05
  using double precision FFTs
  3d grid and FFT values/proc = 2475 256
Setting up Verlet run ...
  Unit style    : real
  Current step  : 40000
  Time step     : 0.5
Per MPI rank memory allocation (min/avg/max) = 8.201 | 8.213 | 8.22 Mbytes
Density 
   1.0345588 
   1.0345588 
Loop time of 7.99281 on 128 procs for 10000 steps with 3036 atoms

Performance: 54.049 ns/day, 0.444 hours/ns, 1251.124 timesteps/s
99.4% CPU use with 128 MPI tasks x no OpenMP threads

MPI task timing breakdown:
Section |  min time  |  avg time  |  max time  |%varavg| %total
---------------------------------------------------------------
Pair    | 1.6011     | 2.1344     | 2.6673     |  15.6 | 26.70
Bond    | 0.00076516 | 0.00089855 | 0.0015773  |   0.0 |  0.01
Kspace  | 3.3198     | 3.85       | 4.37       |  11.5 | 48.17
Neigh   | 0.069969   | 0.070469   | 0.070985   |   0.1 |  0.88
Comm    | 1.0338     | 1.1169     | 1.181      |   3.4 | 13.97
Output  | 3.9434e-05 | 4.9058e-05 | 8.0571e-05 |   0.0 |  0.00
Modify  | 0.64164    | 0.71096    | 0.76361    |   3.6 |  8.89
Other   |            | 0.1091     |            |       |  1.37

Nlocal:    23.7188 ave 32 max 16 min
Histogram: 2 6 9 28 14 35 25 2 5 2
Nghost:    2953.39 ave 2984 max 2922 min
Histogram: 6 6 15 16 24 19 10 16 7 9
Neighs:    9176.42 ave 12140 max 6285 min
Histogram: 7 8 11 15 30 17 14 14 5 7

Total # of neighbors = 1174582
Ave neighs/atom = 386.885
Ave special neighs/atom = 1.97628
Neighbor list builds = 220
Dangerous builds = 0
PPPM initialization ...
  extracting TIP4P info from pair style
  using 12-bit tables for long-range coulomb (../kspace.cpp:321)
  G vector (1/distance) = 0.312128
  grid = 30 30 30
  stencil order = 5
  estimated absolute RMS force accuracy = 0.00339786
  estimated relative force accuracy = 1.02325e-05
  using double precision FFTs
  3d grid and FFT values/proc = 2475 256
Setting up Verlet run ...
  Unit style    : real
  Current step  : 0
  Time step     : 2
Per MPI rank memory allocation (min/avg/max) = 8.201 | 8.213 | 8.22 Mbytes
Density 
   1.0345588 
   1.0345588 
   1.0345588 
   1.0345588 
   1.0345588 
   1.0345588 
   1.0345588 
   1.0345588 
   1.0345588 
   1.0345588 
   1.0345588 
Loop time of 86.2122 on 128 procs for 100000 steps with 3036 atoms

Performance: 200.436 ns/day, 0.120 hours/ns, 1159.929 timesteps/s
99.3% CPU use with 128 MPI tasks x no OpenMP threads

MPI task timing breakdown:
Section |  min time  |  avg time  |  max time  |%varavg| %total
---------------------------------------------------------------
Pair    | 17.947     | 21.764     | 25.352     |  36.9 | 25.24
Bond    | 0.0076029  | 0.0089801  | 0.015269   |   1.2 |  0.01
Kspace  | 36.607     | 40.27      | 44.01      |  27.2 | 46.71
Neigh   | 3.2673     | 3.2885     | 3.3089     |   0.5 |  3.81
Comm    | 11.181     | 12.063     | 12.792     |  10.6 | 13.99
Output  | 0.00033783 | 0.00042681 | 0.00083948 |   0.0 |  0.00
Modify  | 6.8547     | 7.6089     | 8.1431     |  11.5 |  8.83
Other   |            | 1.209      |            |       |  1.40

Nlocal:    23.7188 ave 32 max 14 min
Histogram: 1 3 4 19 12 38 31 12 7 1
Nghost:    2953.26 ave 2982 max 2912 min
Histogram: 1 3 4 10 22 22 27 22 13 4
Neighs:    9181.21 ave 13153 max 4771 min
Histogram: 1 3 9 14 27 36 20 12 4 2

Total # of neighbors = 1175195
Ave neighs/atom = 387.087
Ave special neighs/atom = 1.97628
Neighbor list builds = 8680
Dangerous builds = 0
WARNING: New thermo_style command, previous thermo_modify settings will be lost (../output.cpp:705)
PPPM initialization ...
  extracting TIP4P info from pair style
  using 12-bit tables for long-range coulomb (../kspace.cpp:321)
  G vector (1/distance) = 0.312128
  grid = 30 30 30
  stencil order = 5
  estimated absolute RMS force accuracy = 0.00339786
  estimated relative force accuracy = 1.02325e-05
  using double precision FFTs
  3d grid and FFT values/proc = 2475 256
Setting up Verlet run ...
  Unit style    : real
  Current step  : 0
  Time step     : 2
[...]
98190000     298.6422    297.74929   -73.723305   -122.76301   -13616.607    1811.5482   -11805.059 
98200000    299.52196    297.72115    282.43303   -52.327523   -13668.249    1816.8847   -11851.364 
98210000    295.70756    298.06778   -68.124199   -7.1810784    -13506.59    1793.7468   -11712.843 
98220000    297.64023     297.8385   -7.2372275   -104.67364   -13634.638    1805.4703   -11829.168 
98230000    287.62152    297.33754    588.26095    52.451295   -13509.371    1744.6973   -11764.674 
98240000    290.28267    298.18362     13.73077   -13.157185     -13545.2    1760.8397    -11784.36 
98250000    294.85197     298.1035   -944.91483   -7.2932313   -13529.473    1788.5568   -11740.916 
98260000    305.39242    298.21275    104.38737    88.442381   -13606.482    1852.4947   -11753.988 
98270000     299.6204    297.53961    -224.0053   -11.327552   -13614.544    1817.4819   -11797.062 
98280000    298.05239    297.55462    14.911369   -5.7455842   -13597.248    1807.9704   -11789.278 
98290000    298.55389    297.99052   -507.31386   -39.905525    -13668.95    1811.0125   -11857.937 
98300000    296.88947    297.81166   -122.32904    35.202144     -13626.2    1800.9162   -11825.284 
98310000    300.99409     298.0256    213.32157    22.371834    -13615.01    1825.8146   -11789.195 
98320000    297.28562    298.02607   -475.10651   -39.151148   -13670.498    1803.3192   -11867.179 
98330000    287.78109    297.50628    82.137309    2.8334283   -13584.836    1745.6652   -11839.171 
98340000    298.82442    298.38049    67.255561   -16.841413   -13641.948    1812.6535   -11829.294 
98350000    292.99156    297.85805   -597.03733    41.030767   -13613.388    1777.2717   -11836.116 
98360000    304.02732    298.27569    367.69657    13.563154   -13647.623    1844.2141   -11803.409 
98370000     310.4423    297.86988    378.05896    13.748421   -13575.637     1883.127    -11692.51 
98380000    294.69833    298.12949    291.09607   -84.296156    -13701.73    1787.6249   -11914.105 
98390000    291.87813    298.17847    -310.6314     6.018404   -13545.778    1770.5177    -11775.26 
98400000    291.54518    297.27689    478.71386    14.352993   -13641.589     1768.498    -11873.09 
98410000    299.48851     297.9911    147.79395    84.643831   -13594.313    1816.6819   -11777.631 
98420000    297.70189    298.22225    371.23779     5.340512    -13627.59    1805.8443   -11821.746 
98430000    296.99283    298.08911    264.38463    26.414733   -13632.583    1801.5432    -11831.04 
98440000    297.85227    298.15915    153.70696    42.843446   -13508.669    1806.7565   -11701.913 
98450000     299.0834    298.17396    400.88405    28.917033   -13530.312    1814.2245   -11716.088 
98460000    288.42648    298.42753    213.27384   -64.364856   -13587.247    1749.5802   -11837.667 
98470000    297.26376    298.24635   -400.59814    40.086219   -13557.384    1803.1866   -11754.198 
98480000    293.40543    298.54837   -232.31116     26.42203   -13452.884    1779.7822   -11673.102 
98490000    299.56846    297.91011    272.80628    2.7201698   -13620.244    1817.1669   -11803.078 
98500000    300.40173    298.36013   -180.67495    29.619133   -13655.616    1822.2214   -11833.395 
98510000    305.26664    298.19738   -765.60498   -110.48988   -13619.149    1851.7317   -11767.417 
98520000    299.38728    297.92893   -732.52918   -39.712606   -13614.511    1816.0678   -11798.443 
98530000    294.87938    297.94773   -188.13537   -61.197109   -13594.348    1788.7231   -11805.625 
98540000    301.53542    297.67454    687.26971   -89.084709   -13555.425    1829.0983   -11726.327 
98550000    295.94699    297.47601   -236.07792    9.5404348   -13517.505    1795.1992   -11722.306 
98560000    296.41814    297.69447   -174.72231    -122.2725   -13457.251    1798.0572   -11659.194 
98570000    302.50968    297.99191   -61.492533   -132.91315    -13586.08    1835.0081   -11751.072 
98580000     292.6853    298.03364   -58.041985    -58.41742   -13631.949    1775.4139   -11856.535 
98590000    286.65816    297.89982   -1008.4406    14.057569   -13643.846    1738.8536   -11904.993 
98600000    302.05433    297.76401      344.943    13.218989    -13426.38     1832.246   -11594.134 
98610000     292.6621    298.20599    84.543805   -6.9667403   -13655.003    1775.2732    -11879.73 
98620000    297.72096    298.25022   -438.45454   -104.20247   -13630.736      1805.96   -11824.776 
98630000    305.00215    298.06415     -447.747   -33.922622   -13562.156    1850.1273   -11712.028 
98640000    291.57966    297.68839   -715.55238    146.22569   -13575.917    1768.7072   -11807.209 
98650000    297.15304    298.17651   -629.54835   -10.327927   -13568.621     1802.515   -11766.106 
98660000    297.41995    298.09007    260.91096     32.31889   -13576.515    1804.1341   -11772.381 
98670000    298.76324    297.84411   -428.86827   -62.051119   -13640.068    1812.2824   -11827.786 
98680000    298.77659    298.17973   -188.95947    18.239106   -13552.756    1812.3634   -11740.393 
98690000    298.46207    297.54751   -17.546029   -27.935913   -13565.291    1810.4556   -11754.835 
98700000    302.27983    298.42788    375.14679    -13.53092   -13548.694    1833.6139    -11715.08 
98710000    307.87938    298.19001    546.07841    52.795103   -13617.125    1867.5805   -11749.545 
98720000    298.82267    297.53237    669.67134   -56.192895    -13553.39    1812.6429   -11740.747 
98730000    297.67568    297.98477    870.12044     24.34658   -13666.087    1805.6853   -11860.402 
98740000      297.176    297.62971   -534.68626    54.679064   -13614.077    1802.6543   -11811.422 
98750000    296.67891    297.95301    146.16447     7.470742   -13623.072     1799.639   -11823.433 
98760000    296.57713    297.38303   -139.31054   -34.578633   -13551.016    1799.0216   -11751.994 
98770000    305.04424    297.53274   -373.01426    20.147575   -13510.158    1850.3826   -11659.776 
98780000    295.10788    297.98311   -459.04747    47.314237   -13625.076    1790.1092   -11834.967 
98790000    300.83499    297.94803   -184.59677   -48.537083   -13639.766    1824.8495   -11814.917 
98800000    311.99514    297.98977   -381.59785   -17.932755   -13614.303    1892.5464   -11721.757 
98810000    304.70601    298.13086   -48.387051   -26.878012   -13548.496    1848.3309   -11700.165 
98820000    291.71753    298.13641    120.50263    21.271766    -13644.92    1769.5435   -11875.376 
98830000    294.23389     297.5163    550.43855   -5.6892982   -13645.143    1784.8076   -11860.336 
98840000    299.37038    298.30792   -355.04277   -22.171168   -13663.986    1815.9653    -11848.02 
98850000     294.7816    298.02652    190.93713    19.287043   -13562.784      1788.13   -11774.655 
98860000    290.53145    298.07525   -160.90358   -95.742583   -13539.721    1762.3488   -11777.372 
98870000    301.99076    297.72752   -599.65143   -35.167782   -13607.378    1831.8604   -11775.518 
98880000     300.2143    297.46793    10.884478    22.376566   -13601.128    1821.0845   -11780.044 
98890000    292.23739    297.93677   -129.68367   -100.28847   -13635.689     1772.697   -11862.992 
98900000    305.46884    298.07993   -92.284501   -49.614497   -13612.779    1852.9582   -11759.821 
98910000    302.75318    297.78462    162.66293    134.70807   -13481.241    1836.4852   -11644.756 
98920000    291.23383    298.01575   -187.67975    34.275355   -13561.443    1766.6094   -11794.833 
98930000    298.32802    297.78906    188.52086   -33.603393   -13612.566    1809.6424   -11802.924 
98940000    289.85635    298.07969  -0.88372827   -10.214644   -13578.869    1758.2537   -11820.615 
98950000    295.55612    297.98591   -893.08458    27.453216   -13610.139    1792.8282    -11817.31 
98960000    295.18449    297.67596    146.03357    36.535151   -13583.353    1790.5739   -11792.779 
98970000    305.60274    297.56323     101.7057   -18.244194   -13611.038    1853.7705   -11757.268 
98980000    297.83282    297.88501    496.75762   -110.54752   -13543.682    1806.6385   -11737.044 
98990000    303.94351    298.39671    110.22138    54.604955    -13597.81    1843.7057   -11754.105 
99000000    298.88796    297.79401    113.25113   -109.30912   -13678.653    1813.0389   -11865.614 
99010000    290.60348    297.96142    113.77687    48.423888   -13581.242    1762.7857   -11818.456 
99020000    296.72128    297.52903    163.14233    28.190063    -13693.43     1799.896   -11893.534 
99030000     303.2625    298.29506    145.64623    111.22168   -13634.485    1839.5747    -11794.91 
99040000    293.31266    297.83492    3.2778684   -45.943827   -13487.449    1779.2195   -11708.229 
99050000    288.58624    297.82441   -949.28394    11.002685    -13598.69    1750.5492   -11848.141 
99060000    295.35689    297.68105    562.39358   -128.41347   -13615.955    1791.6197   -11824.336 
99070000    296.79713    297.92007   -32.705785    33.074066   -13661.139    1800.3561   -11860.783 
99080000    303.24289    298.13307    727.57186    34.107985   -13505.901    1839.4557   -11666.445 
99090000    294.63643    298.32568   -526.58376    123.50933   -13636.272    1787.2494   -11849.022 
99100000    304.19683     298.3336   -313.45725    -41.88439   -13535.695    1845.2423   -11690.453 
99110000    299.41198    298.41256    174.03815   -37.376711   -13537.611    1816.2176   -11721.393 
99120000    285.27739    298.01934     173.3783   -4.6970915   -13581.098     1730.478    -11850.62 
99130000    297.27092    298.06792   -176.90569   -27.378806   -13609.315    1803.2301   -11806.085 
99140000    300.86574    298.33484   -62.230953    30.349543   -13713.832    1825.0361   -11888.796 
99150000    296.63012    297.60365    361.19949    26.055108   -13497.195     1799.343   -11697.852 
99160000    301.49583    297.69995    239.23902   -17.318646   -13666.267    1828.8582   -11837.409 
99170000    302.59031    298.05332   -274.56522    19.496846   -13641.169    1835.4972   -11805.671 
99180000    295.37165    297.45702    389.57462    -108.7232   -13556.069    1791.7092    -11764.36 
99190000    295.08832    297.68279    299.52537   -53.299753   -13569.035    1789.9905   -11779.045 
99200000    301.66265    297.84777    -797.8575    73.193934   -13593.523    1829.8701   -11763.653 
99210000    299.60701     297.8608   -75.278198   -32.156338   -13617.356    1817.4007   -11799.955 
99220000    291.53709     297.1667    222.78202     70.97455   -13662.541    1768.4489   -11894.092 
99230000    291.26054    298.29586    45.494368   -18.316469   -13567.163    1766.7714   -11800.391 
99240000    299.90967    297.77792    167.36473   -18.643565   -13564.441    1819.2366   -11745.205 
99250000    289.78057    297.41628    723.82284   -64.165201   -13534.614     1757.794    -11776.82 
99260000    302.68402    298.06645   -67.053528   -88.236911   -13605.944    1836.0657   -11769.878 
99270000    310.39562    297.95896    551.91144   -32.320269   -13585.854    1882.8438    -11703.01 
99280000    289.01374    298.02882   -834.90502   -26.159016   -13571.821    1753.1425   -11818.679 
99290000    293.40299    298.14053   -120.26369    28.337424   -13581.418    1779.7674    -11801.65 
99300000    307.83971    297.32027    45.303621   -49.750071   -13595.944    1867.3398   -11728.605 
99310000    299.77755     298.0535   -534.93574    77.155914   -13684.184    1818.4352   -11865.749 
99320000    302.72143    297.84411  -0.24549778     80.23198   -13627.021    1836.2926   -11790.728 
99330000    305.12003     298.2079    137.94568    25.320835   -13540.006    1850.8424   -11689.164 
99340000    299.86656    297.91657   -798.10136    25.697886   -13647.417    1818.9751   -11828.442 
99350000    302.69627    298.07656   -786.36928   -1.1084742   -13645.572      1836.14   -11809.432 
99360000    297.68949    298.26134    671.95924   -63.129509   -13592.553    1805.7691   -11786.784 
99370000    302.98821    297.63281   -114.17784   -25.800404   -13530.277    1837.9109   -11692.367 
99380000    292.73238    298.23041   -652.85418    13.329553   -13618.156    1775.6995   -11842.456 
99390000    301.65428    297.89826   -169.92501   -28.641203   -13590.329    1829.8193    -11760.51 
99400000    301.66892    298.73885    2.4891827    -60.51511   -13572.435    1829.9081   -11742.527 
99410000    303.72928    297.79984    518.87445    34.036153    -13649.01    1842.4062   -11806.604 
99420000    292.63063    298.13805    240.81384    135.63937   -13637.666    1775.0823   -11862.584 
99430000    289.28342    297.52029   -468.04976    76.255129   -13669.362    1754.7783   -11914.584 
99440000     298.0534    298.08482  0.079351417   -50.174596   -13540.837    1807.9766    -11732.86 
99450000    291.14291    297.94013   -93.060818   -61.528706   -13639.446    1766.0579   -11873.389 
99460000    291.42444    297.82361    810.21608    72.025906   -13588.603    1767.7656   -11820.838 
99470000    297.29053    297.08227   -139.85783    3.5525535   -13650.452     1803.349   -11847.103 
99480000    293.41172    297.87926    -895.5875     5.720284   -13647.773    1779.8204   -11867.953 
99490000    298.01961    297.33952   -50.066525    34.979764   -13518.664    1807.7716   -11710.893 
99500000    302.60328    298.49202   -29.384173    -56.19715   -13554.367    1835.5759   -11718.791 
99510000    300.71647    297.57659    724.81439    -14.73258   -13543.968    1824.1306   -11719.838 
99520000    300.68003    297.77899   -181.42979   -83.582583   -13597.254    1823.9096   -11773.344 
99530000    300.49564    297.98441     463.7958   -46.547156   -13584.462     1822.791   -11761.671 
99540000    297.59298    298.38367   -68.190242    9.4190465   -13730.401    1805.1837   -11925.217 
99550000     293.1138     297.4857    97.950908    4.3110113   -13506.025    1778.0132   -11728.012 
99560000    299.93549    298.03578    107.38559    51.472987   -13653.698    1819.3932   -11834.305 
99570000     299.2062    297.71626   -119.30349   -21.416937   -13574.698    1814.9694   -11759.728 
99580000    295.91321    297.87058    398.34824  -0.69723491   -13637.773    1794.9943   -11842.779 
99590000     294.3367    298.03335   -247.53031   -4.7985797   -13546.369    1785.4313   -11760.938 
99600000    297.09644    297.81488    85.246963   -64.227269    -13613.12    1802.1717   -11810.949 
99610000    309.26947    297.95841    697.79339    31.890702   -13543.628    1876.0127   -11667.615 
99620000    305.62665    297.91231    866.20813   -42.607351   -13509.399    1853.9155   -11655.483 
99630000    300.18504    298.32204   -73.614115   -17.690346    -13567.17     1820.907   -11746.263 
99640000    290.28389    297.88836    623.17367   -74.809689   -13634.469    1760.8471   -11873.622 
99650000    290.54573    297.94477   -115.49657    40.368125   -13629.633    1762.4354   -11867.197 
99660000    290.55411    297.90635     71.85827   -17.586966   -13664.077    1762.4863   -11901.591 
99670000    298.26358    297.55129   -239.72548    42.534267   -13617.849    1809.2515   -11808.597 
99680000    294.44815    298.31382    258.86272    37.055213   -13579.494    1786.1073   -11793.386 
99690000    303.15677    298.47905   -152.84426    40.358624   -13553.013    1838.9333    -11714.08 
99700000     286.6338    298.13682    151.35208    15.064415   -13580.413    1738.7058   -11841.707 
99710000    307.68322    298.13576   -32.899896   -4.1560002   -13545.114    1866.3905   -11678.723 
99720000    283.48854     298.5088   -787.88985    23.315235   -13618.142    1719.6269   -11898.515 
99730000    300.58701    298.29166    227.78614    50.380165   -13584.556    1823.3453    -11761.21 
99740000    294.76505    298.12546   -878.83008    101.68474   -13592.659    1788.0296   -11804.629 
99750000     300.8257    297.96711   -133.35483   -57.398715   -13602.793    1824.7932       -11778 
99760000    296.11813    298.14252   -227.82098   -24.516409   -13678.931    1796.2373   -11882.694 
99770000    294.59403    297.57975   -188.87714   -75.090964   -13582.259    1786.9922   -11795.267 
99780000     308.6576    298.16981   -346.48185   -29.492281   -13560.944    1872.3011   -11688.643 
99790000    298.34613     298.3565   -7.6073354    37.087317   -13563.285    1809.7523   -11753.532 
99800000    308.67686    298.26827   -537.02191    10.815575   -13619.023    1872.4179   -11746.605 
99810000    293.84628    298.03775    578.72197    36.398423   -13581.564    1782.4564   -11799.108 
99820000     298.7324    298.22814   -213.16299   -15.063473   -13478.646    1812.0954   -11666.551 
99830000    293.89991    298.03046   -96.785618   -7.9073772   -13529.218    1782.7817   -11746.436 
99840000    298.64974    297.86866    564.32594    1.7064074   -13557.235    1811.5939   -11745.642 
99850000    293.70743    298.06123   -385.38567   -63.283003   -13564.494    1781.6141    -11782.88 
99860000      300.642    297.70275    263.18928    32.805365   -13599.454    1823.6789   -11775.775 
99870000    302.53771    298.32371   -104.03925    55.776825   -13581.972    1835.1782   -11746.794 
99880000    304.41696    297.70317   -383.61585   -4.3752591   -13667.416    1846.5776   -11820.839 
99890000    308.90074    298.14267    762.39213    35.227691   -13509.901     1873.776   -11636.125 
99900000    299.56102    297.93295    114.14134    31.795078   -13521.606    1817.1217   -11704.484 
99910000    304.31275    298.36132    712.25693    20.852721   -13677.678    1845.9455   -11831.733 
99920000    300.19576     298.1927   -477.85173   -21.829747   -13611.863     1820.972   -11790.891 
99930000    293.96103    297.62982    271.85309    10.081535   -13726.904    1783.1524   -11943.752 
99940000    297.93779    298.06559    204.72091   -44.760002   -13565.004    1807.2753   -11757.729 
99950000     293.2731    297.84164    9.8865472    8.9000542    -13692.36    1778.9795   -11913.381 
99960000     292.2164    298.16735    9.0343551    101.29415   -13665.749    1772.5696   -11893.179 
99970000    297.01905    298.12944    11.942875     22.49082     -13673.6    1801.7022   -11871.898 
99980000    300.87865    297.23521    51.430655    4.7276741    -13585.94    1825.1144   -11760.825 
99990000    311.53025    298.38469    317.95691     59.96425    -13696.72    1889.7265   -11806.993 
100000000    297.14123    298.28992   -522.32584    39.531576    -13613.05    1802.4434   -11810.606 
Loop time of 92571 on 128 procs for 100000000 steps with 3036 atoms

Performance: 186.668 ns/day, 0.129 hours/ns, 1080.252 timesteps/s
99.3% CPU use with 128 MPI tasks x no OpenMP threads

MPI task timing breakdown:
Section |  min time  |  avg time  |  max time  |%varavg| %total
---------------------------------------------------------------
Pair    | 19713      | 23520      | 26930      |1175.4 | 25.41
Bond    | 8.9067     | 10.542     | 17.538     |  39.2 |  0.01
Kspace  | 39067      | 42456      | 46245      | 878.7 | 45.86
Neigh   | 2920.6     | 2939.8     | 2961.3     |  18.7 |  3.18
Comm    | 11593      | 12478      | 13205      | 340.7 | 13.48
Output  | 5.5856     | 86.342     | 101.99     | 169.5 |  0.09
Modify  | 8892.1     | 9571.1     | 10157      | 327.6 | 10.34
Other   |            | 1509       |            |       |  1.63

Nlocal:    23.7188 ave 35 max 12 min
Histogram: 1 1 6 30 18 27 38 5 1 1
Nghost:    2953.97 ave 2984 max 2923 min
Histogram: 4 6 13 17 24 17 20 16 10 1
Neighs:    9178.58 ave 13048 max 5204 min
Histogram: 2 5 13 21 21 23 21 13 5 4

Total # of neighbors = 1174858
Ave neighs/atom = 386.976
Ave special neighs/atom = 1.97628
Neighbor list builds = 8679837
Dangerous builds = 0

JOB STATISTICS
==============
Job ID: 2423570
Cluster: snellius
User/Group: phabibi/phabibi
State: COMPLETED (exit code 0)
Nodes: 1
Cores per node: 128
CPU Utilized: 152-02:01:39
CPU Efficiency: 99.31% of 153-03:29:04 core-walltime
Job Wall-clock time: 1-04:42:53
Memory Utilized: 20.75 GB (estimated maximum)
Memory Efficiency: 9.26% of 224.00 GB (1.75 GB/core)
