created by fftool

1705 atoms
1110 bonds
555 angles
4 atom types
1 bond types
1 angle types
0.000000 26.190141 xlo xhi
0.000000 26.190141 ylo yhi
0.000000 26.190141 zlo zhi
Atoms

      1       1    1  -1.112800  1.270404e+01  1.258659e+01  1.138535e+01  # Ow water
      2       1    2   0.556400  1.294702e+01  1.242890e+01  1.229767e+01  # Hw water
      3       1    2   0.556400  1.226736e+01  1.178036e+01  1.111050e+01  # Hw water
      4       2    1  -1.112800  2.059330e+01  2.232423e+01  1.257141e+01  # Ow water
      5       2    2   0.556400  2.039861e+01  2.271609e+01  1.172007e+01  # Hw water
      6       2    2   0.556400  1.987007e+01  2.260103e+01  1.313403e+01  # Hw water
      7       3    1  -1.112800  1.809823e+01  2.374213e+01  6.926574e+00  # Ow water
      8       3    2   0.556400  1.843764e+01  2.321198e+01  6.205481e+00  # Hw water
      9       3    2   0.556400  1.823989e+01  2.464653e+01  6.646908e+00  # Hw water
     10       4    1  -1.112800  1.462515e+01  1.726479e+01  3.919200e+00  # Ow water
     11       4    2   0.556400  1.439183e+01  1.816210e+01  3.681239e+00  # Hw water
     12       4    2   0.556400  1.496785e+01  1.688352e+01  3.110856e+00  # Hw water
     13       5    1  -1.112800  6.607827e+00  1.736512e+00  1.648028e+00  # Ow water
     14       5    2   0.556400  6.654786e+00  2.681027e+00  1.499989e+00  # Hw water
     15       5    2   0.556400  7.478856e+00  1.499947e+00  1.966736e+00  # Hw water
     16       6    1  -1.112800  1.760778e+01  8.774690e+00  8.595038e+00  # Ow water
     17       6    2   0.556400  1.681970e+01  8.755720e+00  8.052088e+00  # Hw water
     18       6    2   0.556400  1.730109e+01  9.067933e+00  9.453045e+00  # Hw water
     19       7    1  -1.112800  1.667154e+01  1.453284e+01  2.028186e+01  # Ow water
     20       7    2   0.556400  1.739281e+01  1.392111e+01  2.013430e+01  # Hw water
     21       7    2   0.556400  1.694947e+01  1.534036e+01  1.984956e+01  # Hw water
     22       8    1  -1.112800  9.783971e+00  1.601209e+01  1.584374e+00  # Ow water
     23       8    2   0.556400  9.099450e+00  1.534836e+01  1.500000e+00  # Hw water
     24       8    2   0.556400  9.311398e+00  1.684446e+01  1.593135e+00  # Hw water
     25       9    1  -1.112800  2.258795e+00  2.464381e+01  6.273897e+00  # Ow water
     26       9    2   0.556400  1.500004e+00  2.469010e+01  6.855553e+00  # Hw water
     27       9    2   0.556400  3.010296e+00  2.458598e+01  6.863922e+00  # Hw water
     28      10    1  -1.112800  3.994012e+00  2.210927e+01  6.329592e+00  # Ow water
     29      10    2   0.556400  4.042273e+00  2.156430e+01  7.115032e+00  # Hw water
     30      10    2   0.556400  3.853879e+00  2.148822e+01  5.614828e+00  # Hw water
     31      11    1  -1.112800  1.510997e+00  2.462821e+01  3.528868e+00  # Ow water
     32      11    2   0.556400  1.499963e+00  2.368800e+01  3.708098e+00  # Hw water
     33      11    2   0.556400  1.561691e+00  2.469011e+01  2.575019e+00  # Hw water
     34      12    1  -1.112800  1.675607e+00  5.032336e+00  2.239329e+01  # Ow water
     35      12    2   0.556400  1.500000e+00  5.423487e+00  2.153749e+01  # Hw water
     36      12    2   0.556400  2.511383e+00  5.412413e+00  2.266394e+01  # Hw water
     37      13    1  -1.112800  1.259096e+01  3.692300e+00  2.230576e+01  # Ow water
     38      13    2   0.556400  1.190344e+01  3.359415e+00  2.172893e+01  # Hw water
     39      13    2   0.556400  1.261435e+01  4.633482e+00  2.213296e+01  # Hw water
     40      14    1  -1.112800  2.178067e+01  2.498577e+00  1.508222e+00  # Ow water
     41      14    2   0.556400  2.177933e+01  1.566782e+00  1.727279e+00  # Hw water
     42      14    2   0.556400  2.201470e+01  2.937085e+00  2.326249e+00  # Hw water
     43      15    1  -1.112800  1.904347e+01  1.715381e+01  2.031256e+01  # Ow water
     44      15    2   0.556400  1.868344e+01  1.695202e+01  2.117621e+01  # Hw water
     45      15    2   0.556400  1.991659e+01  1.750261e+01  2.049206e+01  # Hw water
     46      16    1  -1.112800  1.461675e+01  6.728257e+00  2.352998e+01  # Ow water
     47      16    2   0.556400  1.420558e+01  7.580628e+00  2.338635e+01  # Hw water
     48      16    2   0.556400  1.534200e+01  6.703414e+00  2.290579e+01  # Hw water
     49      17    1  -1.112800  2.464636e+01  2.070995e+01  1.404485e+01  # Ow water
     50      17    2   0.556400  2.468773e+01  2.106519e+01  1.315697e+01  # Hw water
     51      17    2   0.556400  2.469032e+01  1.976117e+01  1.392602e+01  # Hw water
     52      18    1  -1.112800  6.803272e+00  1.958537e+01  6.205588e+00  # Ow water
     53      18    2   0.556400  6.024431e+00  2.013048e+01  6.093788e+00  # Hw water
     54      18    2   0.556400  7.521709e+00  2.012167e+01  5.870236e+00  # Hw water
     55      19    1  -1.112800  1.099826e+01  1.936664e+01  4.610349e+00  # Ow water
     56      19    2   0.556400  1.085506e+01  1.942869e+01  3.665959e+00  # Hw water
     57      19    2   0.556400  1.019437e+01  1.971239e+01  4.998208e+00  # Hw water
     58      20    1  -1.112800  1.069177e+01  1.918109e+01  1.105801e+01  # Ow water
     59      20    2   0.556400  1.061723e+01  1.984776e+01  1.037520e+01  # Hw water
     60      20    2   0.556400  1.078308e+01  1.835695e+01  1.057981e+01  # Hw water
     61      21    1  -1.112800  1.924637e+01  1.976955e+01  1.773540e+01  # Ow water
     62      21    2   0.556400  1.949726e+01  2.067091e+01  1.793746e+01  # Hw water
     63      21    2   0.556400  1.970163e+01  1.924103e+01  1.839086e+01  # Hw water
     64      22    1  -1.112800  2.428162e+01  7.229063e+00  1.504836e+01  # Ow water
     65      22    2   0.556400  2.469059e+01  7.041037e+00  1.589312e+01  # Hw water
     66      22    2   0.556400  2.466887e+01  8.060316e+00  1.477397e+01  # Hw water
     67      23    1  -1.112800  2.467580e+01  1.188439e+01  2.256912e+01  # Ow water
     68      23    2   0.556400  2.469015e+01  1.266109e+01  2.200987e+01  # Hw water
     69      23    2   0.556400  2.469030e+01  1.114809e+01  2.195766e+01  # Hw water
     70      24    1  -1.112800  2.196716e+01  1.843214e+01  2.255164e+01  # Ow water
     71      24    2   0.556400  2.237921e+01  1.929179e+01  2.246529e+01  # Hw water
     72      24    2   0.556400  2.224869e+01  1.795176e+01  2.177305e+01  # Hw water
     73      25    1  -1.112800  8.248358e+00  1.818273e+01  1.980395e+01  # Ow water
     74      25    2   0.556400  8.699574e+00  1.733856e+01  1.979973e+01  # Hw water
     75      25    2   0.556400  7.387659e+00  1.799293e+01  2.017732e+01  # Hw water
     76      26    1  -1.112800  5.724431e+00  2.202245e+01  2.076827e+01  # Ow water
     77      26    2   0.556400  5.911703e+00  2.245704e+01  1.993623e+01  # Hw water
     78      26    2   0.556400  4.949081e+00  2.247185e+01  2.110457e+01  # Hw water
     79      27    1  -1.112800  1.547366e+01  1.591531e+01  2.224220e+01  # Ow water
     80      27    2   0.556400  1.631991e+01  1.636183e+01  2.221575e+01  # Hw water
     81      27    2   0.556400  1.483507e+01  1.661821e+01  2.236208e+01  # Hw water
     82      28    1  -1.112800  2.015644e+01  2.455029e+01  4.007201e+00  # Ow water
     83      28    2   0.556400  1.928400e+01  2.468996e+01  4.375381e+00  # Hw water
     84      28    2   0.556400  2.075261e+01  2.469023e+01  4.742884e+00  # Hw water
     85      29    1  -1.112800  6.728671e+00  2.457648e+01  1.848762e+01  # Ow water
     86      29    2   0.556400  5.830681e+00  2.468964e+01  1.879912e+01  # Hw water
     87      29    2   0.556400  7.269842e+00  2.469019e+01  1.926892e+01  # Hw water
     88      30    1  -1.112800  1.887960e+01  1.019734e+01  1.588638e+01  # Ow water
     89      30    2   0.556400  1.892492e+01  9.315211e+00  1.551757e+01  # Hw water
     90      30    2   0.556400  1.922093e+01  1.076440e+01  1.519488e+01  # Hw water
     91      31    1  -1.112800  8.518382e+00  7.773972e+00  2.144330e+01  # Ow water
     92      31    2   0.556400  9.275022e+00  7.758895e+00  2.085722e+01  # Hw water
     93      31    2   0.556400  8.838635e+00  8.201269e+00  2.223771e+01  # Hw water
     94      32    1  -1.112800  2.201075e+01  2.048731e+01  1.742622e+01  # Ow water
     95      32    2   0.556400  2.227890e+01  2.131993e+01  1.781489e+01  # Hw water
     96      32    2   0.556400  2.202448e+01  2.064747e+01  1.648262e+01  # Hw water
     97      33    1  -1.112800  1.952574e+00  7.075940e+00  6.634001e+00  # Ow water
     98      33    2   0.556400  1.500635e+00  6.263450e+00  6.406315e+00  # Hw water
     99      33    2   0.556400  2.467218e+00  6.854888e+00  7.410214e+00  # Hw water
    100      34    1  -1.112800  1.815158e+01  1.190954e+01  1.843194e+01  # Ow water
    101      34    2   0.556400  1.894361e+01  1.150576e+01  1.878675e+01  # Hw water
    102      34    2   0.556400  1.842773e+01  1.228577e+01  1.759622e+01  # Hw water
    103      35    1  -1.112800  7.275538e+00  2.174749e+01  2.468978e+01  # Ow water
    104      35    2   0.556400  7.406085e+00  2.080144e+01  2.462508e+01  # Hw water
    105      35    2   0.556400  8.158796e+00  2.211464e+01  2.465396e+01  # Hw water
    106      36    1  -1.112800  2.084733e+01  4.717912e+00  4.165190e+00  # Ow water
    107      36    2   0.556400  2.169376e+01  4.864094e+00  4.587576e+00  # Hw water
    108      36    2   0.556400  2.029775e+01  5.438527e+00  4.473257e+00  # Hw water
    109      37    1  -1.112800  1.302033e+01  1.574278e+01  2.391183e+01  # Ow water
    110      37    2   0.556400  1.301020e+01  1.518561e+01  2.469009e+01  # Hw water
    111      37    2   0.556400  1.232931e+01  1.538713e+01  2.335305e+01  # Hw water
    112      38    1  -1.112800  1.138341e+01  1.805058e+00  1.166025e+01  # Ow water
    113      38    2   0.556400  1.183371e+01  2.649716e+00  1.166428e+01  # Hw water
    114      38    2   0.556400  1.145357e+01  1.500002e+00  1.075568e+01  # Hw water
    115      39    1  -1.112800  2.245946e+01  1.276959e+01  7.057112e+00  # Ow water
    116      39    2   0.556400  2.215785e+01  1.224828e+01  7.801085e+00  # Hw water
    117      39    2   0.556400  2.166643e+01  1.318423e+01  6.717386e+00  # Hw water
    118      40    1  -1.112800  3.887138e+00  2.064031e+01  1.957221e+01  # Ow water
    119      40    2   0.556400  4.042257e+00  1.972202e+01  1.979335e+01  # Hw water
    120      40    2   0.556400  3.944354e+00  2.067015e+01  1.861719e+01  # Hw water
    121      41    1  -1.112800  1.864664e+01  1.428525e+01  2.229367e+01  # Ow water
    122      41    2   0.556400  1.778505e+01  1.408773e+01  2.266092e+01  # Hw water
    123      41    2   0.556400  1.909553e+01  1.344026e+01  2.226682e+01  # Hw water
    124      42    1  -1.112800  1.500027e+00  9.417333e+00  4.692982e+00  # Ow water
    125      42    2   0.556400  1.502969e+00  9.401389e+00  5.650043e+00  # Hw water
    126      42    2   0.556400  1.505644e+00  1.034780e+01  4.468442e+00  # Hw water
    127      43    1  -1.112800  2.469035e+01  3.845886e+00  3.365444e+00  # Ow water
    128      43    2   0.556400  2.449655e+01  4.004181e+00  2.441532e+00  # Hw water
    129      43    2   0.556400  2.383424e+01  3.845479e+00  3.793587e+00  # Hw water
    130      44    1  -1.112800  6.286189e+00  7.988691e+00  1.500722e+01  # Ow water
    131      44    2   0.556400  6.324452e+00  7.038691e+00  1.489647e+01  # Hw water
    132      44    2   0.556400  5.536406e+00  8.261921e+00  1.447864e+01  # Hw water
    133      45    1  -1.112800  5.039823e+00  9.937116e+00  1.758764e+01  # Ow water
    134      45    2   0.556400  4.342323e+00  1.058770e+01  1.766806e+01  # Hw water
    135      45    2   0.556400  5.182408e+00  9.853429e+00  1.664483e+01  # Hw water
    136      46    1  -1.112800  1.744618e+01  5.205194e+00  1.225738e+01  # Ow water
    137      46    2   0.556400  1.837983e+01  5.118702e+00  1.206494e+01  # Hw water
    138      46    2   0.556400  1.731755e+01  4.694367e+00  1.305660e+01  # Hw water
    139      47    1  -1.112800  2.185071e+01  8.950857e+00  1.566041e+01  # Ow water
    140      47    2   0.556400  2.246267e+01  8.498247e+00  1.624082e+01  # Hw water
    141      47    2   0.556400  2.153462e+01  9.692592e+00  1.617631e+01  # Hw water
    142      48    1  -1.112800  2.078805e+00  2.163459e+01  1.650026e+00  # Ow water
    143      48    2   0.556400  1.500001e+00  2.238205e+01  1.500000e+00  # Hw water
    144      48    2   0.556400  1.522396e+00  2.086835e+01  1.510290e+00  # Hw water
    145      49    1  -1.112800  2.401834e+01  1.738404e+01  2.214216e+00  # Ow water
    146      49    2   0.556400  2.469010e+01  1.756098e+01  1.555693e+00  # Hw water
    147      49    2   0.556400  2.319719e+01  1.737312e+01  1.722459e+00  # Hw water
    148      50    1  -1.112800  1.137662e+01  7.197963e+00  2.406109e+01  # Ow water
    149      50    2   0.556400  1.209072e+01  7.301535e+00  2.469003e+01  # Hw water
    150      50    2   0.556400  1.058854e+01  7.135998e+00  2.460083e+01  # Hw water
    151      51    1  -1.112800  2.240042e+01  1.108572e+01  2.322757e+01  # Ow water
    152      51    2   0.556400  2.224376e+01  1.048486e+01  2.249911e+01  # Hw water
    153      51    2   0.556400  2.152754e+01  1.128580e+01  2.356561e+01  # Hw water
    154      52    1  -1.112800  2.303450e+01  1.559616e+01  2.079067e+01  # Ow water
    155      52    2   0.556400  2.333110e+01  1.470401e+01  2.097048e+01  # Hw water
    156      52    2   0.556400  2.239183e+01  1.549837e+01  2.008807e+01  # Hw water
    157      53    1  -1.112800  1.695088e+01  2.355143e+01  3.939169e+00  # Ow water
    158      53    2   0.556400  1.706873e+01  2.263642e+01  4.194322e+00  # Hw water
    159      53    2   0.556400  1.609160e+01  2.357438e+01  3.518040e+00  # Hw water
    160      54    1  -1.112800  9.437600e+00  1.783712e+00  2.097470e+01  # Ow water
    161      54    2   0.556400  1.025957e+01  1.508358e+00  2.138063e+01  # Hw water
    162      54    2   0.556400  8.760014e+00  1.500000e+00  2.158839e+01  # Hw water
    163      55    1  -1.112800  5.809726e+00  1.063975e+01  2.467913e+01  # Ow water
    164      55    2   0.556400  5.628106e+00  1.157949e+01  2.469010e+01  # Hw water
    165      55    2   0.556400  6.528945e+00  1.054158e+01  2.405518e+01  # Hw water
    166      56    1  -1.112800  2.383410e+00  4.019846e+00  7.292762e+00  # Ow water
    167      56    2   0.556400  1.500495e+00  3.710216e+00  7.090723e+00  # Hw water
    168      56    2   0.556400  2.800998e+00  4.128523e+00  6.438339e+00  # Hw water
    169      57    1  -1.112800  2.382450e+01  1.874550e+01  8.069290e+00  # Ow water
    170      57    2   0.556400  2.469061e+01  1.902288e+01  8.367830e+00  # Hw water
    171      57    2   0.556400  2.326100e+01  1.950202e+01  8.231687e+00  # Hw water
    172      58    1  -1.112800  2.224329e+01  1.552860e+01  7.460002e+00  # Ow water
    173      58    2   0.556400  2.232029e+01  1.643188e+01  7.767231e+00  # Hw water
    174      58    2   0.556400  2.254331e+01  1.499775e+01  8.197847e+00  # Hw water
    175      59    1  -1.112800  7.522045e+00  3.952398e+00  6.401562e+00  # Ow water
    176      59    2   0.556400  8.387425e+00  3.549802e+00  6.474107e+00  # Hw water
    177      59    2   0.556400  7.674158e+00  4.881293e+00  6.575474e+00  # Hw water
    178      60    1  -1.112800  1.109264e+01  2.427696e+01  8.767078e+00  # Ow water
    179      60    2   0.556400  1.077366e+01  2.469011e+01  7.964714e+00  # Hw water
    180      60    2   0.556400  1.194119e+01  2.468945e+01  8.928440e+00  # Hw water
    181      61    1  -1.112800  6.552985e+00  2.468961e+01  1.232558e+01  # Ow water
    182      61    2   0.556400  6.773658e+00  2.379529e+01  1.258581e+01  # Hw water
    183      61    2   0.556400  6.507714e+00  2.465725e+01  1.137000e+01  # Hw water
    184      62    1  -1.112800  1.822908e+01  1.771097e+01  1.132188e+01  # Ow water
    185      62    2   0.556400  1.863346e+01  1.784326e+01  1.217932e+01  # Hw water
    186      62    2   0.556400  1.736001e+01  1.736093e+01  1.151783e+01  # Hw water
    187      63    1  -1.112800  2.219355e+00  2.506573e+00  1.583158e+01  # Ow water
    188      63    2   0.556400  1.516361e+00  1.974713e+00  1.545855e+01  # Hw water
    189      63    2   0.556400  2.755656e+00  2.757194e+00  1.507939e+01  # Hw water
    190      64    1  -1.112800  6.012087e+00  1.108009e+01  3.520015e+00  # Ow water
    191      64    2   0.556400  6.884476e+00  1.130208e+01  3.194616e+00  # Hw water
    192      64    2   0.556400  5.612967e+00  1.192398e+01  3.731647e+00  # Hw water
    193      65    1  -1.112800  1.213505e+01  9.194196e+00  4.382352e+00  # Ow water
    194      65    2   0.556400  1.259319e+01  1.003444e+01  4.364331e+00  # Hw water
    195      65    2   0.556400  1.243206e+01  8.741923e+00  3.592755e+00  # Hw water
    196      66    1  -1.112800  1.608561e+01  2.231946e+01  1.733085e+01  # Ow water
    197      66    2   0.556400  1.650344e+01  2.288554e+01  1.668186e+01  # Hw water
    198      66    2   0.556400  1.679954e+01  2.204822e+01  1.790788e+01  # Hw water
    199      67    1  -1.112800  8.155699e+00  2.462014e+01  8.198108e+00  # Ow water
    200      67    2   0.556400  7.443783e+00  2.469010e+01  8.834119e+00  # Hw water
    201      67    2   0.556400  8.491106e+00  2.373066e+01  8.310203e+00  # Hw water
    202      68    1  -1.112800  2.179321e+01  9.910164e+00  1.941132e+01  # Ow water
    203      68    2   0.556400  2.097339e+01  9.856811e+00  1.892013e+01  # Hw water
    204      68    2   0.556400  2.247622e+01  9.892526e+00  1.874093e+01  # Hw water
    205      69    1  -1.112800  1.375641e+01  8.202058e+00  1.542237e+00  # Ow water
    206      69    2   0.556400  1.470243e+01  8.062438e+00  1.500074e+00  # Hw water
    207      69    2   0.556400  1.338542e+01  7.320715e+00  1.584989e+00  # Hw water
    208      70    1  -1.112800  2.082525e+01  2.201616e+01  5.778358e+00  # Ow water
    209      70    2   0.556400  2.029510e+01  2.132116e+01  6.168410e+00  # Hw water
    210      70    2   0.556400  2.037798e+01  2.222804e+01  4.959036e+00  # Hw water
    211      71    1  -1.112800  1.035061e+01  5.416830e+00  6.867745e+00  # Ow water
    212      71    2   0.556400  1.068921e+01  5.039238e+00  6.055955e+00  # Hw water
    213      71    2   0.556400  1.057006e+01  4.773361e+00  7.541554e+00  # Hw water
    214      72    1  -1.112800  1.492900e+01  7.945413e+00  6.073114e+00  # Ow water
    215      72    2   0.556400  1.568613e+01  8.300832e+00  5.607649e+00  # Hw water
    216      72    2   0.556400  1.427627e+01  7.794268e+00  5.389496e+00  # Hw water
    217      73    1  -1.112800  1.641400e+01  1.401911e+01  1.692624e+01  # Ow water
    218      73    2   0.556400  1.606955e+01  1.366227e+01  1.774492e+01  # Hw water
    219      73    2   0.556400  1.708489e+01  1.464436e+01  1.720044e+01  # Hw water
    220      74    1  -1.112800  6.601453e+00  1.700010e+01  1.500478e+00  # Ow water
    221      74    2   0.556400  6.504274e+00  1.676871e+01  2.424190e+00  # Hw water
    222      74    2   0.556400  6.733017e+00  1.794821e+01  1.503130e+00  # Hw water
    223      75    1  -1.112800  2.420387e+01  5.389910e+00  1.198027e+01  # Ow water
    224      75    2   0.556400  2.468960e+01  4.575978e+00  1.184683e+01  # Hw water
    225      75    2   0.556400  2.468987e+01  5.849966e+00  1.266466e+01  # Hw water
    226      76    1  -1.112800  2.129239e+01  1.534738e+00  1.036063e+01  # Ow water
    227      76    2   0.556400  2.224176e+01  1.502181e+00  1.047838e+01  # Hw water
    228      76    2   0.556400  2.093897e+01  1.499983e+00  1.124952e+01  # Hw water
    229      77    1  -1.112800  8.715033e+00  1.319362e+01  1.974617e+01  # Ow water
    230      77    2   0.556400  8.861226e+00  1.271774e+01  1.892862e+01  # Hw water
    231      77    2   0.556400  9.409327e+00  1.288733e+01  2.032959e+01  # Hw water
    232      78    1  -1.112800  9.105718e+00  1.039642e+01  4.995609e+00  # Ow water
    233      78    2   0.556400  9.757102e+00  9.963459e+00  4.443819e+00  # Hw water
    234      78    2   0.556400  9.202178e+00  1.132743e+01  4.795274e+00  # Hw water
    235      79    1  -1.112800  1.596865e+01  2.191294e+00  1.897799e+01  # Ow water
    236      79    2   0.556400  1.597021e+01  1.501786e+00  1.964192e+01  # Hw water
    237      79    2   0.556400  1.665759e+01  2.794495e+00  1.925682e+01  # Hw water
    238      80    1  -1.112800  1.214649e+01  8.126330e+00  1.436316e+01  # Ow water
    239      80    2   0.556400  1.218553e+01  8.892195e+00  1.493601e+01  # Hw water
    240      80    2   0.556400  1.252182e+01  7.417004e+00  1.488490e+01  # Hw water
    241      81    1  -1.112800  2.467656e+01  6.471740e+00  3.692609e+00  # Ow water
    242      81    2   0.556400  2.379925e+01  6.331972e+00  4.049006e+00  # Hw water
    243      81    2   0.556400  2.453106e+01  6.669516e+00  2.767438e+00  # Hw water
    244      82    1  -1.112800  1.444796e+01  3.817242e+00  1.243486e+01  # Ow water
    245      82    2   0.556400  1.506774e+01  3.435232e+00  1.305629e+01  # Hw water
    246      82    2   0.556400  1.492952e+01  4.537267e+00  1.202755e+01  # Hw water
    247      83    1  -1.112800  2.112092e+01  2.225557e+01  2.287828e+01  # Ow water
    248      83    2   0.556400  2.139247e+01  2.275192e+01  2.365038e+01  # Hw water
    249      83    2   0.556400  2.193625e+01  2.190611e+01  2.251865e+01  # Hw water
    250      84    1  -1.112800  4.842827e+00  2.080172e+01  1.620300e+01  # Ow water
    251      84    2   0.556400  4.143245e+00  2.018134e+01  1.599819e+01  # Hw water
    252      84    2   0.556400  5.645600e+00  2.028261e+01  1.615493e+01  # Hw water
    253      85    1  -1.112800  2.133760e+01  5.795975e+00  1.396905e+01  # Ow water
    254      85    2   0.556400  2.070983e+01  5.940259e+00  1.326102e+01  # Hw water
    255      85    2   0.556400  2.112053e+01  6.461743e+00  1.462163e+01  # Hw water
    256      86    1  -1.112800  2.443715e+01  1.703837e+01  2.265065e+01  # Ow water
    257      86    2   0.556400  2.468998e+01  1.611714e+01  2.259033e+01  # Hw water
    258      86    2   0.556400  2.468972e+01  1.741232e+01  2.180650e+01  # Hw water
    259      87    1  -1.112800  3.443153e+00  1.484186e+01  7.233492e+00  # Ow water
    260      87    2   0.556400  3.668377e+00  1.563694e+01  7.716548e+00  # Hw water
    261      87    2   0.556400  3.147566e+00  1.515585e+01  6.378937e+00  # Hw water
    262      88    1  -1.112800  5.658487e+00  9.272090e+00  1.095275e+01  # Ow water
    263      88    2   0.556400  5.469598e+00  9.687691e+00  1.011143e+01  # Hw water
    264      88    2   0.556400  6.340591e+00  8.630161e+00  1.075555e+01  # Hw water
    265      89    1  -1.112800  2.110099e+01  2.032514e+01  1.495554e+00  # Ow water
    266      89    2   0.556400  2.119326e+01  2.112101e+01  2.019294e+00  # Hw water
    267      89    2   0.556400  2.018521e+01  2.006967e+01  1.606501e+00  # Hw water
    268      90    1  -1.112800  1.074038e+01  2.463565e+01  2.106453e+01  # Ow water
    269      90    2   0.556400  9.813510e+00  2.461468e+01  2.082642e+01  # Hw water
    270      90    2   0.556400  1.120198e+01  2.468952e+01  2.022772e+01  # Hw water
    271      91    1  -1.112800  1.567618e+01  8.739969e+00  1.467914e+01  # Ow water
    272      91    2   0.556400  1.491283e+01  9.121602e+00  1.511260e+01  # Hw water
    273      91    2   0.556400  1.629552e+01  8.570544e+00  1.538904e+01  # Hw water
    274      92    1  -1.112800  4.279656e+00  1.437862e+01  2.469010e+01  # Ow water
    275      92    2   0.556400  3.875112e+00  1.351112e+01  2.468648e+01  # Hw water
    276      92    2   0.556400  3.947092e+00  1.480181e+01  2.389856e+01  # Hw water
    277      93    1  -1.112800  2.386509e+01  1.845938e+01  1.130703e+01  # Ow water
    278      93    2   0.556400  2.468936e+01  1.873454e+01  1.090567e+01  # Hw water
    279      93    2   0.556400  2.330787e+01  1.821560e+01  1.056791e+01  # Hw water
    280      94    1  -1.112800  1.301174e+01  5.125979e+00  1.761668e+01  # Ow water
    281      94    2   0.556400  1.272201e+01  5.522901e+00  1.679526e+01  # Hw water
    282      94    2   0.556400  1.388691e+01  4.789078e+00  1.742485e+01  # Hw water
    283      95    1  -1.112800  3.912864e+00  1.276321e+01  1.468565e+01  # Ow water
    284      95    2   0.556400  3.038151e+00  1.295858e+01  1.502171e+01  # Hw water
    285      95    2   0.556400  4.192773e+00  1.199213e+01  1.517892e+01  # Hw water
    286      96    1  -1.112800  1.742995e+01  2.381834e+01  2.208122e+01  # Ow water
    287      96    2   0.556400  1.754231e+01  2.469012e+01  2.246016e+01  # Hw water
    288      96    2   0.556400  1.807217e+01  2.327404e+01  2.253676e+01  # Hw water
    289      97    1  -1.112800  1.406239e+01  1.241099e+01  9.020029e+00  # Ow water
    290      97    2   0.556400  1.403752e+01  1.335623e+01  8.871272e+00  # Hw water
    291      97    2   0.556400  1.414386e+01  1.203235e+01  8.144687e+00  # Hw water
    292      98    1  -1.112800  1.302910e+01  9.721279e+00  2.459312e+01  # Ow water
    293      98    2   0.556400  1.207822e+01  9.795184e+00  2.451194e+01  # Hw water
    294      98    2   0.556400  1.333256e+01  1.062391e+01  2.469010e+01  # Hw water
    295      99    1  -1.112800  2.456263e+01  1.584443e+00  6.373278e+00  # Ow water
    296      99    2   0.556400  2.468905e+01  2.516474e+00  6.550942e+00  # Hw water
    297      99    2   0.556400  2.469001e+01  1.500828e+00  5.428286e+00  # Hw water
    298     100    1  -1.112800  1.342110e+01  5.229960e+00  3.951606e+00  # Ow water
    299     100    2   0.556400  1.417020e+01  5.196498e+00  4.546554e+00  # Hw water
    300     100    2   0.556400  1.276231e+01  5.739305e+00  4.423616e+00  # Hw water
    301     101    1  -1.112800  1.936386e+01  1.593587e+01  6.145276e+00  # Ow water
    302     101    2   0.556400  1.921638e+01  1.514245e+01  6.660025e+00  # Hw water
    303     101    2   0.556400  2.005845e+01  1.639967e+01  6.612884e+00  # Hw water
    304     102    1  -1.112800  5.674554e+00  6.665485e+00  1.785685e+01  # Ow water
    305     102    2   0.556400  5.600781e+00  5.865045e+00  1.733715e+01  # Hw water
    306     102    2   0.556400  5.098864e+00  7.291086e+00  1.741703e+01  # Hw water
    307     103    1  -1.112800  1.524584e+01  1.731992e+01  1.659615e+01  # Ow water
    308     103    2   0.556400  1.515533e+01  1.764566e+01  1.570064e+01  # Hw water
    309     103    2   0.556400  1.507274e+01  1.638093e+01  1.652861e+01  # Hw water
    310     104    1  -1.112800  1.581284e+00  6.164628e+00  9.823943e+00  # Ow water
    311     104    2   0.556400  1.971897e+00  5.916099e+00  1.066173e+01  # Hw water
    312     104    2   0.556400  1.500025e+00  5.340871e+00  9.343265e+00  # Hw water
    313     105    1  -1.112800  2.468976e+01  1.176874e+01  7.659375e+00  # Ow water
    314     105    2   0.556400  2.444521e+01  1.096341e+01  8.115297e+00  # Hw water
    315     105    2   0.556400  2.459480e+01  1.245610e+01  8.318727e+00  # Hw water
    316     106    1  -1.112800  4.596355e+00  1.920181e+01  1.135199e+01  # Ow water
    317     106    2   0.556400  4.741918e+00  1.849009e+01  1.072869e+01  # Hw water
    318     106    2   0.556400  5.092421e+00  1.894523e+01  1.212936e+01  # Hw water
    319     107    1  -1.112800  2.040537e+01  6.746407e+00  1.065537e+01  # Ow water
    320     107    2   0.556400  2.020529e+01  6.494998e+00  9.753708e+00  # Hw water
    321     107    2   0.556400  1.966122e+01  7.284614e+00  1.092520e+01  # Hw water
    322     108    1  -1.112800  4.232737e+00  1.190725e+01  9.083361e+00  # Ow water
    323     108    2   0.556400  4.667490e+00  1.158162e+01  8.295206e+00  # Hw water
    324     108    2   0.556400  3.874330e+00  1.275673e+01  8.826160e+00  # Hw water
    325     109    1  -1.112800  9.098601e+00  1.859404e+01  7.499591e+00  # Ow water
    326     109    2   0.556400  9.042572e+00  1.803180e+01  6.726945e+00  # Hw water
    327     109    2   0.556400  9.795800e+00  1.820626e+01  8.028523e+00  # Hw water
    328     110    1  -1.112800  4.044983e+00  2.459492e+01  4.435435e+00  # Ow water
    329     110    2   0.556400  3.913090e+00  2.364984e+01  4.360282e+00  # Hw water
    330     110    2   0.556400  4.965711e+00  2.469011e+01  4.679215e+00  # Hw water
    331     111    1  -1.112800  1.500065e+00  7.525412e+00  2.467664e+01  # Ow water
    332     111    2   0.556400  1.511710e+00  7.755804e+00  2.374765e+01  # Hw water
    333     111    2   0.556400  1.621952e+00  6.576100e+00  2.469001e+01  # Hw water
    334     112    1  -1.112800  5.693465e+00  2.014652e+01  2.242051e+01  # Ow water
    335     112    2   0.556400  5.348252e+00  1.930461e+01  2.271758e+01  # Hw water
    336     112    2   0.556400  6.558407e+00  1.993978e+01  2.206644e+01  # Hw water
    337     113    1  -1.112800  2.065203e+00  3.286540e+00  2.448941e+01  # Ow water
    338     113    2   0.556400  1.529207e+00  2.519248e+00  2.468991e+01  # Hw water
    339     113    2   0.556400  1.500405e+00  4.032874e+00  2.468995e+01  # Hw water
    340     114    1  -1.112800  6.154991e+00  2.090396e+01  1.338752e+01  # Ow water
    341     114    2   0.556400  5.961719e+00  2.175498e+01  1.378076e+01  # Hw water
    342     114    2   0.556400  6.387508e+00  2.110565e+01  1.248116e+01  # Hw water
    343     115    1  -1.112800  1.688838e+01  2.213242e+01  1.635100e+00  # Ow water
    344     115    2   0.556400  1.726510e+01  2.126288e+01  1.500152e+00  # Hw water
    345     115    2   0.556400  1.594861e+01  2.201036e+01  1.500316e+00  # Hw water
    346     116    1  -1.112800  1.010807e+01  7.431461e+00  4.895007e+00  # Ow water