created by fftool

1685 atoms
1110 bonds
555 angles
4 atom types
1 bond types
1 angle types
0.000000 25.893344 xlo xhi
0.000000 25.893344 ylo yhi
0.000000 25.893344 zlo zhi
Atoms

      1       1    1  -1.112800  1.972044e+01  1.077660e+01  2.367711e+01  # Ow water
      2       1    2   0.556400  1.983410e+01  1.015611e+01  2.439704e+01  # Hw water
      3       1    2   0.556400  1.989387e+01  1.163273e+01  2.406851e+01  # Hw water
      4       2    1  -1.112800  2.342551e+01  3.756681e+00  9.510157e+00  # Ow water
      5       2    2   0.556400  2.315270e+01  4.672198e+00  9.449898e+00  # Hw water
      6       2    2   0.556400  2.427296e+01  3.729061e+00  9.065986e+00  # Hw water
      7       3    1  -1.112800  2.383755e+01  9.915008e+00  1.500289e+00  # Ow water
      8       3    2   0.556400  2.372460e+01  1.020833e+01  2.404410e+00  # Hw water
      9       3    2   0.556400  2.439356e+01  9.138760e+00  1.567507e+00  # Hw water
     10       4    1  -1.112800  2.439394e+01  1.090164e+01  4.711149e+00  # Ow water
     11       4    2   0.556400  2.368559e+01  1.029416e+01  4.924289e+00  # Hw water
     12       4    2   0.556400  2.398919e+01  1.176784e+01  4.757073e+00  # Hw water
     13       5    1  -1.112800  6.624178e+00  8.423190e+00  2.425993e+01  # Ow water
     14       5    2   0.556400  6.344467e+00  8.448460e+00  2.334486e+01  # Hw water
     15       5    2   0.556400  7.547551e+00  8.173869e+00  2.422183e+01  # Hw water
     16       6    1  -1.112800  1.453175e+01  1.814307e+01  1.661633e+01  # Ow water
     17       6    2   0.556400  1.479431e+01  1.753736e+01  1.730944e+01  # Hw water
     18       6    2   0.556400  1.472160e+01  1.767453e+01  1.580353e+01  # Hw water
     19       7    1  -1.112800  1.328302e+01  2.439657e+01  2.877931e+00  # Ow water
     20       7    2   0.556400  1.327876e+01  2.439286e+01  1.920749e+00  # Hw water
     21       7    2   0.556400  1.236118e+01  2.431477e+01  3.122343e+00  # Hw water
     22       8    1  -1.112800  1.004468e+01  1.989777e+01  2.422612e+01  # Ow water
     23       8    2   0.556400  9.756331e+00  1.939405e+01  2.346497e+01  # Hw water
     24       8    2   0.556400  9.327925e+00  2.050939e+01  2.439469e+01  # Hw water
     25       9    1  -1.112800  1.570026e+01  1.549719e+01  2.407420e+01  # Ow water
     26       9    2   0.556400  1.564974e+01  1.639682e+01  2.439723e+01  # Hw water
     27       9    2   0.556400  1.489138e+01  1.508667e+01  2.437987e+01  # Hw water
     28      10    1  -1.112800  2.935725e+00  2.072931e+00  2.018505e+01  # Ow water
     29      10    2   0.556400  2.905993e+00  1.499738e+00  2.095107e+01  # Hw water
     30      10    2   0.556400  3.203755e+00  1.499844e+00  1.946675e+01  # Hw water
     31      11    1  -1.112800  2.343121e+01  1.972781e+01  2.437877e+01  # Ow water
     32      11    2   0.556400  2.331117e+01  2.026723e+01  2.359720e+01  # Hw water
     33      11    2   0.556400  2.435549e+01  1.947968e+01  2.435947e+01  # Hw water
     34      12    1  -1.112800  1.475222e+01  1.177942e+01  2.440193e+01  # Ow water
     35      12    2   0.556400  1.444531e+01  1.135125e+01  2.360274e+01  # Hw water
     36      12    2   0.556400  1.511705e+01  1.261235e+01  2.410303e+01  # Hw water
     37      13    1  -1.112800  2.118212e+01  2.133460e+00  2.436749e+01  # Ow water
     38      13    2   0.556400  2.189790e+01  1.499588e+00  2.432183e+01  # Hw water
     39      13    2   0.556400  2.161672e+01  2.986292e+00  2.437225e+01  # Hw water
     40      14    1  -1.112800  1.681191e+00  1.257486e+01  2.060763e+01  # Ow water
     41      14    2   0.556400  1.499996e+00  1.314995e+01  1.986421e+01  # Hw water
     42      14    2   0.556400  2.423089e+00  1.298446e+01  2.105266e+01  # Hw water
     43      15    1  -1.112800  1.207846e+01  5.817671e+00  1.610640e+01  # Ow water
     44      15    2   0.556400  1.272520e+01  5.261237e+00  1.654038e+01  # Hw water
     45      15    2   0.556400  1.251617e+01  6.118045e+00  1.530990e+01  # Hw water
     46      16    1  -1.112800  5.918786e+00  2.197381e+01  8.344391e+00  # Ow water
     47      16    2   0.556400  6.734509e+00  2.196475e+01  7.843650e+00  # Hw water
     48      16    2   0.556400  6.016378e+00  2.126039e+01  8.975048e+00  # Hw water
     49      17    1  -1.112800  1.498719e+00  2.405793e+01  2.435657e+01  # Ow water
     50      17    2   0.556400  2.113245e+00  2.332504e+01  2.439487e+01  # Hw water
     51      17    2   0.556400  1.558858e+00  2.437471e+01  2.345532e+01  # Hw water
     52      18    1  -1.112800  1.682117e+01  2.403109e+01  1.717448e+01  # Ow water
     53      18    2   0.556400  1.610657e+01  2.439497e+01  1.769714e+01  # Hw water
     54      18    2   0.556400  1.656155e+01  2.419274e+01  1.626746e+01  # Hw water
     55      19    1  -1.112800  2.403536e+01  1.575598e+01  1.244654e+01  # Ow water
     56      19    2   0.556400  2.439319e+01  1.490416e+01  1.219636e+01  # Hw water
     57      19    2   0.556400  2.439315e+01  1.591966e+01  1.331914e+01  # Hw water
     58      20    1  -1.112800  1.954347e+01  1.210097e+01  1.608676e+01  # Ow water
     59      20    2   0.556400  1.983583e+01  1.119994e+01  1.594931e+01  # Hw water
     60      20    2   0.556400  1.956396e+01  1.221768e+01  1.703660e+01  # Hw water
     61      21    1  -1.112800  1.743727e+01  4.944724e+00  1.566615e+01  # Ow water
     62      21    2   0.556400  1.718522e+01  4.401901e+00  1.491913e+01  # Hw water
     63      21    2   0.556400  1.740949e+01  5.841144e+00  1.533165e+01  # Hw water
     64      22    1  -1.112800  2.181082e+01  1.690652e+01  2.362109e+01  # Ow water
     65      22    2   0.556400  2.178639e+01  1.631766e+01  2.437533e+01  # Hw water
     66      22    2   0.556400  2.186029e+01  1.778306e+01  2.400247e+01  # Hw water
     67      23    1  -1.112800  1.975451e+01  1.565602e+01  2.018216e+00  # Ow water
     68      23    2   0.556400  1.954493e+01  1.484382e+01  1.557090e+00  # Hw water
     69      23    2   0.556400  1.933389e+01  1.634183e+01  1.499599e+00  # Hw water
     70      24    1  -1.112800  1.756546e+01  2.415561e+01  2.439484e+01  # Ow water
     71      24    2   0.556400  1.664642e+01  2.439357e+01  2.427246e+01  # Hw water
     72      24    2   0.556400  1.798700e+01  2.439362e+01  2.356908e+01  # Hw water
     73      25    1  -1.112800  1.512080e+00  1.362056e+01  6.373923e+00  # Ow water
     74      25    2   0.556400  1.521105e+00  1.419513e+01  5.608402e+00  # Hw water
     75      25    2   0.556400  1.494324e+00  1.421759e+01  7.121898e+00  # Hw water
     76      26    1  -1.112800  2.188744e+01  1.813051e+01  2.367829e+00  # Ow water
     77      26    2   0.556400  2.189536e+01  1.718540e+01  2.216439e+00  # Hw water
     78      26    2   0.556400  2.177000e+01  1.851195e+01  1.497802e+00  # Hw water
     79      27    1  -1.112800  1.688436e+01  1.919036e+01  1.553683e+01  # Ow water
     80      27    2   0.556400  1.714229e+01  1.965729e+01  1.474205e+01  # Hw water
     81      27    2   0.556400  1.710743e+01  1.827624e+01  1.536121e+01  # Hw water
     82      28    1  -1.112800  1.189935e+01  1.906903e+01  1.468422e+01  # Ow water
     83      28    2   0.556400  1.243802e+01  1.854526e+01  1.527728e+01  # Hw water
     84      28    2   0.556400  1.128273e+01  1.952344e+01  1.525826e+01  # Hw water
     85      29    1  -1.112800  4.990682e+00  1.889526e+01  1.331471e+01  # Ow water
     86      29    2   0.556400  5.391076e+00  1.947594e+01  1.396181e+01  # Hw water
     87      29    2   0.556400  4.645133e+00  1.816533e+01  1.382854e+01  # Hw water
     88      30    1  -1.112800  2.439686e+01  2.383095e+01  1.591365e+01  # Ow water
     89      30    2   0.556400  2.412158e+01  2.439482e+01  1.663648e+01  # Hw water
     90      30    2   0.556400  2.435829e+01  2.439493e+01  1.514120e+01  # Hw water
     91      31    1  -1.112800  1.124845e+01  1.684746e+01  9.630794e+00  # Ow water
     92      31    2   0.556400  1.108939e+01  1.703707e+01  1.055544e+01  # Hw water
     93      31    2   0.556400  1.039348e+01  1.658602e+01  9.288886e+00  # Hw water
     94      32    1  -1.112800  2.107918e+01  2.200383e+01  2.643586e+00  # Ow water
     95      32    2   0.556400  2.190281e+01  2.231053e+01  3.022781e+00  # Hw water
     96      32    2   0.556400  2.041710e+01  2.222167e+01  3.299655e+00  # Hw water
     97      33    1  -1.112800  2.231499e+01  1.715614e+01  1.981629e+01  # Ow water
     98      33    2   0.556400  2.170974e+01  1.659868e+01  2.030530e+01  # Hw water
     99      33    2   0.556400  2.260774e+01  1.661024e+01  1.908655e+01  # Hw water
    100      34    1  -1.112800  2.200330e+01  1.114574e+01  2.074024e+01  # Ow water
    101      34    2   0.556400  2.195801e+01  1.208647e+01  2.091115e+01  # Hw water
    102      34    2   0.556400  2.171330e+01  1.073922e+01  2.155686e+01  # Hw water
    103      35    1  -1.112800  7.685468e+00  4.373262e+00  1.619593e+01  # Ow water
    104      35    2   0.556400  7.562844e+00  3.978517e+00  1.705928e+01  # Hw water
    105      35    2   0.556400  7.856600e+00  5.297516e+00  1.637675e+01  # Hw water
    106      36    1  -1.112800  4.682793e+00  1.790071e+01  4.261309e+00  # Ow water
    107      36    2   0.556400  5.073460e+00  1.735130e+01  3.581789e+00  # Hw water
    108      36    2   0.556400  4.287451e+00  1.862944e+01  3.782879e+00  # Hw water
    109      37    1  -1.112800  7.306825e+00  2.423106e+01  3.975751e+00  # Ow water
    110      37    2   0.556400  7.374882e+00  2.327706e+01  3.937289e+00  # Hw water
    111      37    2   0.556400  6.798709e+00  2.440365e+01  4.768378e+00  # Hw water
    112      38    1  -1.112800  1.276622e+01  8.740828e+00  1.645980e+01  # Ow water
    113      38    2   0.556400  1.192162e+01  8.297452e+00  1.638043e+01  # Hw water
    114      38    2   0.556400  1.258096e+01  9.652311e+00  1.623373e+01  # Hw water
    115      39    1  -1.112800  1.072720e+01  9.889232e+00  9.718817e+00  # Ow water
    116      39    2   0.556400  1.092897e+01  9.012139e+00  1.004474e+01  # Hw water
    117      39    2   0.556400  1.070708e+01  1.043788e+01  1.050291e+01  # Hw water
    118      40    1  -1.112800  2.053261e+01  2.184030e+01  1.346462e+01  # Ow water
    119      40    2   0.556400  2.023631e+01  2.226473e+01  1.265945e+01  # Hw water
    120      40    2   0.556400  2.012066e+01  2.097648e+01  1.344617e+01  # Hw water
    121      41    1  -1.112800  1.569745e+01  2.431100e+01  5.559332e+00  # Ow water
    122      41    2   0.556400  1.644669e+01  2.371640e+01  5.595546e+00  # Hw water
    123      41    2   0.556400  1.537738e+01  2.423926e+01  4.660090e+00  # Hw water
    124      42    1  -1.112800  1.313295e+01  1.681445e+01  2.832932e+00  # Ow water
    125      42    2   0.556400  1.335679e+01  1.755432e+01  3.397482e+00  # Hw water
    126      42    2   0.556400  1.217949e+01  1.675040e+01  2.888003e+00  # Hw water
    127      43    1  -1.112800  5.205091e+00  2.213828e+00  2.086467e+00  # Ow water
    128      43    2   0.556400  4.927061e+00  2.918713e+00  1.501604e+00  # Hw water
    129      43    2   0.556400  5.480253e+00  1.509505e+00  1.499574e+00  # Hw water
    130      44    1  -1.112800  1.576905e+01  9.712396e+00  5.360298e+00  # Ow water
    131      44    2   0.556400  1.670939e+01  9.837551e+00  5.232536e+00  # Hw water
    132      44    2   0.556400  1.567373e+01  9.551394e+00  6.299032e+00  # Hw water
    133      45    1  -1.112800  1.805635e+01  1.334343e+01  1.868267e+01  # Ow water
    134      45    2   0.556400  1.755070e+01  1.344013e+01  1.787571e+01  # Hw water
    135      45    2   0.556400  1.828396e+01  1.423911e+01  1.893205e+01  # Hw water
    136      46    1  -1.112800  9.466561e+00  1.574244e+01  1.500392e+00  # Ow water
    137      46    2   0.556400  1.039649e+01  1.554646e+01  1.614688e+00  # Hw water
    138      46    2   0.556400  9.421112e+00  1.669856e+01  1.499691e+00  # Hw water
    139      47    1  -1.112800  1.546682e+00  2.344982e+01  7.030656e+00  # Ow water
    140      47    2   0.556400  1.499227e+00  2.433823e+01  6.677515e+00  # Hw water
    141      47    2   0.556400  1.497248e+00  2.288272e+01  6.261122e+00  # Hw water
    142      48    1  -1.112800  5.377352e+00  2.021365e+01  6.338274e+00  # Ow water
    143      48    2   0.556400  6.043565e+00  1.961753e+01  5.996165e+00  # Hw water
    144      48    2   0.556400  4.694444e+00  2.022070e+01  5.667591e+00  # Hw water
    145      49    1  -1.112800  4.418297e+00  1.529365e+00  8.813193e+00  # Ow water
    146      49    2   0.556400  3.581019e+00  1.990192e+00  8.759974e+00  # Hw water
    147      49    2   0.556400  4.739505e+00  1.510366e+00  7.911697e+00  # Hw water
    148      50    1  -1.112800  2.219112e+00  4.429085e+00  2.115743e+01  # Ow water
    149      50    2   0.556400  2.974988e+00  4.128964e+00  2.166222e+01  # Hw water
    150      50    2   0.556400  1.499280e+00  4.442495e+00  2.178822e+01  # Hw water
    151      51    1  -1.112800  1.407228e+01  3.676770e+00  2.091600e+01  # Ow water
    152      51    2   0.556400  1.385151e+01  3.012973e+00  2.156934e+01  # Hw water
    153      51    2   0.556400  1.332943e+01  4.280338e+00  2.092660e+01  # Hw water
    154      52    1  -1.112800  2.143168e+01  2.344270e+01  1.531597e+01  # Ow water
    155      52    2   0.556400  2.197224e+01  2.324544e+01  1.608091e+01  # Hw water
    156      52    2   0.556400  2.145130e+01  2.439728e+01  1.524797e+01  # Hw water
    157      53    1  -1.112800  1.959242e+01  1.505204e+01  2.201860e+01  # Ow water
    158      53    2   0.556400  1.966746e+01  1.461529e+01  2.286704e+01  # Hw water
    159      53    2   0.556400  2.014756e+01  1.582776e+01  2.209807e+01  # Hw water
    160      54    1  -1.112800  1.572280e+01  4.988837e+00  2.225904e+01  # Ow water
    161      54    2   0.556400  1.510673e+01  5.720628e+00  2.222491e+01  # Hw water
    162      54    2   0.556400  1.570208e+01  4.700026e+00  2.317139e+01  # Hw water
    163      55    1  -1.112800  2.440728e+01  1.872437e+01  1.415217e+01  # Ow water
    164      55    2   0.556400  2.368978e+01  1.830829e+01  1.462997e+01  # Hw water
    165      55    2   0.556400  2.430571e+01  1.841713e+01  1.325132e+01  # Hw water
    166      56    1  -1.112800  2.439211e+01  1.710839e+01  2.313625e+00  # Ow water
    167      56    2   0.556400  2.439502e+01  1.777982e+01  2.995827e+00  # Hw water
    168      56    2   0.556400  2.439341e+01  1.760046e+01  1.492591e+00  # Hw water
    169      57    1  -1.112800  6.787744e+00  2.033486e+01  3.054296e+00  # Ow water
    170      57    2   0.556400  7.053245e+00  1.969086e+01  3.710807e+00  # Hw water
    171      57    2   0.556400  6.357058e+00  2.102635e+01  3.556871e+00  # Hw water
    172      58    1  -1.112800  9.460319e+00  1.965795e+01  3.036533e+00  # Ow water
    173      58    2   0.556400  9.342573e+00  1.870954e+01  2.982734e+00  # Hw water
    174      58    2   0.556400  9.140744e+00  1.998748e+01  2.196589e+00  # Hw water
    175      59    1  -1.112800  1.106151e+01  1.996233e+01  1.070661e+01  # Ow water
    176      59    2   0.556400  1.156719e+01  1.944443e+01  1.008028e+01  # Hw water
    177      59    2   0.556400  1.031978e+01  2.029378e+01  1.020045e+01  # Hw water
    178      60    1  -1.112800  1.955572e+01  1.675742e+01  1.860728e+01  # Ow water
    179      60    2   0.556400  1.880701e+01  1.730062e+01  1.836110e+01  # Hw water
    180      60    2   0.556400  2.031941e+01  1.725371e+01  1.831284e+01  # Hw water
    181      61    1  -1.112800  2.340758e+01  7.703077e+00  1.355893e+01  # Ow water
    182      61    2   0.556400  2.317238e+01  7.500552e+00  1.265345e+01  # Hw water
    183      61    2   0.556400  2.432389e+01  7.436716e+00  1.363419e+01  # Hw water
    184      62    1  -1.112800  2.422458e+01  1.154445e+01  2.181594e+01  # Ow water
    185      62    2   0.556400  2.439331e+01  1.107516e+01  2.263296e+01  # Hw water
    186      62    2   0.556400  2.439340e+01  1.246263e+01  2.202732e+01  # Hw water
    187      63    1  -1.112800  2.175128e+01  1.894973e+01  2.146413e+01  # Ow water
    188      63    2   0.556400  2.140939e+01  1.950526e+01  2.216465e+01  # Hw water
    189      63    2   0.556400  2.262069e+01  1.868853e+01  2.176766e+01  # Hw water
    190      64    1  -1.112800  7.124214e+00  1.702990e+01  1.993534e+01  # Ow water
    191      64    2   0.556400  6.506327e+00  1.696237e+01  2.066327e+01  # Hw water
    192      64    2   0.556400  7.825129e+00  1.641718e+01  2.015787e+01  # Hw water
    193      65    1  -1.112800  5.668918e+00  2.375386e+01  1.665176e+01  # Ow water
    194      65    2   0.556400  5.216387e+00  2.439439e+01  1.610297e+01  # Hw water
    195      65    2   0.556400  5.010832e+00  2.308157e+01  1.682833e+01  # Hw water
    196      66    1  -1.112800  1.394756e+01  1.682134e+01  2.179533e+01  # Ow water
    197      66    2   0.556400  1.345220e+01  1.603420e+01  2.202174e+01  # Hw water
    198      66    2   0.556400  1.410139e+01  1.725744e+01  2.263341e+01  # Hw water
    199      67    1  -1.112800  1.953270e+01  2.375982e+01  5.060834e+00  # Ow water
    200      67    2   0.556400  1.893192e+01  2.429425e+01  5.580141e+00  # Hw water
    201      67    2   0.556400  2.004721e+01  2.439381e+01  4.561262e+00  # Hw water
    202      68    1  -1.112800  7.361740e+00  2.395256e+01  2.114584e+01  # Ow water
    203      68    2   0.556400  8.264793e+00  2.365001e+01  2.124169e+01  # Hw water
    204      68    2   0.556400  7.345318e+00  2.439375e+01  2.029654e+01  # Hw water
    205      69    1  -1.112800  1.730093e+01  8.151107e+00  1.637558e+01  # Ow water
    206      69    2   0.556400  1.823688e+01  8.093435e+00  1.618345e+01  # Hw water
    207      69    2   0.556400  1.689849e+01  8.387374e+00  1.553985e+01  # Hw water
    208      70    1  -1.112800  8.212580e+00  8.203330e+00  1.899689e+01  # Ow water
    209      70    2   0.556400  8.747010e+00  8.713376e+00  1.960555e+01  # Hw water
    210      70    2   0.556400  8.674076e+00  8.267211e+00  1.816072e+01  # Hw water
    211      71    1  -1.112800  2.145580e+01  2.034639e+01  1.638514e+01  # Ow water
    212      71    2   0.556400  2.144206e+01  2.085566e+01  1.557478e+01  # Hw water
    213      71    2   0.556400  2.183470e+01  2.093882e+01  1.703451e+01  # Hw water
    214      72    1  -1.112800  2.121619e+00  6.063950e+00  7.697429e+00  # Ow water
    215      72    2   0.556400  1.499954e+00  6.041637e+00  6.969925e+00  # Hw water
    216      72    2   0.556400  1.659304e+00  6.530162e+00  8.393949e+00  # Hw water
    217      73    1  -1.112800  1.729967e+01  1.014415e+01  1.794341e+01  # Ow water
    218      73    2   0.556400  1.815018e+01  1.021100e+01  1.750938e+01  # Hw water
    219      73    2   0.556400  1.715308e+01  1.101224e+01  1.831912e+01  # Hw water
    220      74    1  -1.112800  6.365678e+00  1.869461e+01  2.347770e+01  # Ow water
    221      74    2   0.556400  5.571101e+00  1.849824e+01  2.298140e+01  # Hw water
    222      74    2   0.556400  6.094807e+00  1.864373e+01  2.439436e+01  # Hw water
    223      75    1  -1.112800  2.049714e+01  6.272433e+00  3.919966e+00  # Ow water
    224      75    2   0.556400  1.957450e+01  6.512675e+00  3.834817e+00  # Hw water
    225      75    2   0.556400  2.057423e+01  5.444350e+00  3.446083e+00  # Hw water
    226      76    1  -1.112800  1.308569e+01  1.360279e+01  2.054753e+01  # Ow water
    227      76    2   0.556400  1.312765e+01  1.356233e+01  1.959211e+01  # Hw water
    228      76    2   0.556400  1.228934e+01  1.410085e+01  2.073190e+01  # Hw water
    229      77    1  -1.112800  8.507233e+00  4.343162e+00  1.082301e+01  # Ow water
    230      77    2   0.556400  7.602545e+00  4.052138e+00  1.070867e+01  # Hw water
    231      77    2   0.556400  8.641260e+00  4.988554e+00  1.012894e+01  # Hw water
    232      78    1  -1.112800  2.122417e+01  1.406966e+01  8.354631e+00  # Ow water
    233      78    2   0.556400  2.137337e+01  1.463642e+01  9.111434e+00  # Hw water
    234      78    2   0.556400  2.201577e+01  1.353476e+01  8.295612e+00  # Hw water
    235      79    1  -1.112800  4.619045e+00  2.010215e+01  1.835234e+01  # Ow water
    236      79    2   0.556400  4.433624e+00  2.100555e+01  1.809597e+01  # Hw water
    237      79    2   0.556400  5.455152e+00  2.015100e+01  1.881578e+01  # Hw water
    238      80    1  -1.112800  1.727810e+01  1.104642e+01  2.237899e+01  # Ow water
    239      80    2   0.556400  1.654939e+01  1.166045e+01  2.228860e+01  # Hw water
    240      80    2   0.556400  1.739150e+01  1.067791e+01  2.150288e+01  # Hw water
    241      81    1  -1.112800  2.364212e+01  2.057172e+00  4.299290e+00  # Ow water
    242      81    2   0.556400  2.303496e+01  1.497999e+00  3.814618e+00  # Hw water
    243      81    2   0.556400  2.439809e+01  1.496384e+00  4.473219e+00  # Hw water
    244      82    1  -1.112800  7.967831e+00  6.068531e+00  1.366812e+01  # Ow water
    245      82    2   0.556400  7.166232e+00  6.577315e+00  1.378979e+01  # Hw water
    246      82    2   0.556400  7.987312e+00  5.871694e+00  1.273158e+01  # Hw water
    247      83    1  -1.112800  4.047928e+00  1.078764e+01  1.589223e+01  # Ow water
    248      83    2   0.556400  4.402289e+00  1.078278e+01  1.500306e+01  # Hw water
    249      83    2   0.556400  3.937357e+00  9.862492e+00  1.611157e+01  # Hw water
    250      84    1  -1.112800  2.142968e+01  6.652852e+00  9.902003e+00  # Ow water
    251      84    2   0.556400  2.071765e+01  6.472927e+00  1.051591e+01  # Hw water
    252      84    2   0.556400  2.219135e+01  6.814737e+00  1.045867e+01  # Hw water
    253      85    1  -1.112800  2.285213e+01  6.045695e+00  1.595860e+01  # Ow water
    254      85    2   0.556400  2.235884e+01  6.056746e+00  1.513837e+01  # Hw water
    255      85    2   0.556400  2.218298e+01  5.983977e+00  1.664026e+01  # Hw water
    256      86    1  -1.112800  8.728771e+00  1.897150e+00  1.128921e+01  # Ow water
    257      86    2   0.556400  8.615974e+00  1.778964e+00  1.223236e+01  # Hw water
    258      86    2   0.556400  7.949617e+00  1.497731e+00  1.090241e+01  # Hw water
    259      87    1  -1.112800  2.435605e+01  1.480955e+01  4.010965e+00  # Ow water
    260      87    2   0.556400  2.439400e+01  1.569429e+01  4.374305e+00  # Hw water
    261      87    2   0.556400  2.439533e+01  1.423441e+01  4.775101e+00  # Hw water
    262      88    1  -1.112800  1.022418e+01  6.318326e+00  2.318594e+01  # Ow water
    263      88    2   0.556400  1.052616e+01  5.649009e+00  2.379999e+01  # Hw water
    264      88    2   0.556400  9.721818e+00  6.929359e+00  2.372492e+01  # Hw water
    265      89    1  -1.112800  2.380163e+01  4.281687e+00  1.391214e+01  # Ow water
    266      89    2   0.556400  2.439549e+01  4.992406e+00  1.415388e+01  # Hw water
    267      89    2   0.556400  2.436944e+01  3.616146e+00  1.352370e+01  # Hw water
    268      90    1  -1.112800  2.439680e+01  7.764708e+00  2.184061e+01  # Ow water
    269      90    2   0.556400  2.439466e+01  7.478644e+00  2.092716e+01  # Hw water
    270      90    2   0.556400  2.439914e+01  8.720703e+00  2.179270e+01  # Hw water
    271      91    1  -1.112800  2.382862e+01  1.339514e+01  1.973266e+01  # Ow water
    272      91    2   0.556400  2.439400e+01  1.264864e+01  1.953438e+01  # Hw water
    273      91    2   0.556400  2.425215e+01  1.413792e+01  1.930239e+01  # Hw water
    274      92    1  -1.112800  1.551514e+01  2.335828e+01  1.499504e+00  # Ow water
    275      92    2   0.556400  1.589137e+01  2.423693e+01  1.550990e+00  # Hw water
    276      92    2   0.556400  1.538603e+01  2.309866e+01  2.411732e+00  # Hw water
    277      93    1  -1.112800  9.726441e+00  1.494797e+00  2.068598e+01  # Ow water
    278      93    2   0.556400  1.029337e+01  1.499861e+00  2.145721e+01  # Hw water
    279      93    2   0.556400  9.437901e+00  2.402851e+00  2.059427e+01  # Hw water
    280      94    1  -1.112800  5.001200e+00  1.134814e+01  2.385707e+01  # Ow water
    281      94    2   0.556400  4.370650e+00  1.187202e+01  2.435123e+01  # Hw water
    282      94    2   0.556400  5.137038e+00  1.056712e+01  2.439353e+01  # Hw water
    283      95    1  -1.112800  2.227161e+00  1.493011e+00  6.476241e+00  # Ow water
    284      95    2   0.556400  1.496752e+00  1.878676e+00  6.959970e+00  # Hw water
    285      95    2   0.556400  2.854646e+00  2.209124e+00  6.377887e+00  # Hw water
    286      96    1  -1.112800  2.141328e+01  1.895013e+01  7.194870e+00  # Ow water
    287      96    2   0.556400  2.164129e+01  1.815203e+01  6.718138e+00  # Hw water
    288      96    2   0.556400  2.218844e+01  1.950621e+01  7.116521e+00  # Hw water
    289      97    1  -1.112800  2.332129e+01  1.558274e+01  6.629269e+00  # Ow water
    290      97    2   0.556400  2.414127e+01  1.529004e+01  7.026988e+00  # Hw water
    291      97    2   0.556400  2.275319e+01  1.578583e+01  7.372403e+00  # Hw water
    292      98    1  -1.112800  8.431634e+00  3.649685e+00  3.919902e+00  # Ow water
    293      98    2   0.556400  8.970679e+00  4.014426e+00  4.621773e+00  # Hw water
    294      98    2   0.556400  7.577901e+00  3.500015e+00  4.326063e+00  # Hw water
    295      99    1  -1.112800  1.056397e+01  2.439384e+01  7.726775e+00  # Ow water
    296      99    2   0.556400  1.035230e+01  2.425337e+01  8.649647e+00  # Hw water
    297      99    2   0.556400  1.150809e+01  2.424601e+01  7.671895e+00  # Hw water
    298     100    1  -1.112800  6.104531e+00  2.344550e+01  1.150595e+01  # Ow water
    299     100    2   0.556400  6.271921e+00  2.312619e+01  1.061925e+01  # Hw water
    300     100    2   0.556400  6.221630e+00  2.439360e+01  1.144571e+01  # Hw water
    301     101    1  -1.112800  1.006602e+01  2.084823e+00  8.692498e+00  # Ow water
    302     101    2   0.556400  1.032214e+01  1.498586e+00  9.404508e+00  # Hw water
    303     101    2   0.556400  9.830993e+00  1.499517e+00  7.972493e+00  # Hw water
    304     102    1  -1.112800  1.585353e+01  1.739866e+01  1.172180e+01  # Ow water
    305     102    2   0.556400  1.563899e+01  1.755498e+01  1.264146e+01  # Hw water
    306     102    2   0.556400  1.664847e+01  1.790995e+01  1.157055e+01  # Hw water
    307     103    1  -1.112800  3.364972e+00  4.278877e+00  1.522791e+01  # Ow water
    308     103    2   0.556400  3.671928e+00  3.927529e+00  1.606371e+01  # Hw water
    309     103    2   0.556400  3.857856e+00  3.792039e+00  1.456739e+01  # Hw water
    310     104    1  -1.112800  1.341451e+01  6.743830e+00  2.420717e+01  # Ow water
    311     104    2   0.556400  1.302022e+01  6.472530e+00  2.337822e+01  # Hw water
    312     104    2   0.556400  1.414224e+01  7.311082e+00  2.395249e+01  # Hw water
    313     105    1  -1.112800  1.279273e+01  9.576827e+00  3.775088e+00  # Ow water
    314     105    2   0.556400  1.205644e+01  1.014776e+01  3.994504e+00  # Hw water
    315     105    2   0.556400  1.356214e+01  1.014284e+01  3.837247e+00  # Hw water
    316     106    1  -1.112800  1.407436e+01  2.430792e+01  1.468368e+01  # Ow water
    317     106    2   0.556400  1.324526e+01  2.390641e+01  1.442367e+01  # Hw water
    318     106    2   0.556400  1.469166e+01  2.357761e+01  1.472651e+01  # Hw water
    319     107    1  -1.112800  7.471904e+00  2.435065e+01  7.727255e+00  # Ow water
    320     107    2   0.556400  6.636033e+00  2.439433e+01  7.262884e+00  # Hw water
    321     107    2   0.556400  7.234363e+00  2.439333e+01  8.653529e+00  # Hw water
    322     108    1  -1.112800  2.167406e+01  8.326581e+00  1.593128e+01  # Ow water
    323     108    2   0.556400  2.222650e+01  8.482898e+00  1.669719e+01  # Hw water
    324     108    2   0.556400  2.095989e+01  8.958036e+00  1.601759e+01  # Hw water
    325     109    1  -1.112800  3.861189e+00  2.331214e+01  2.260765e+01  # Ow water
    326     109    2   0.556400  3.820601e+00  2.424526e+01  2.239817e+01  # Hw water
    327     109    2   0.556400  3.118781e+00  2.292882e+01  2.214061e+01  # Hw water
    328     110    1  -1.112800  2.155740e+01  2.145452e+01  5.387787e+00  # Ow water
    329     110    2   0.556400  2.225432e+01  2.173277e+01  5.982025e+00  # Hw water
    330     110    2   0.556400  2.192012e+01  2.069541e+01  4.931271e+00  # Hw water
    331     111    1  -1.112800  1.150263e+01  5.995926e+00  3.823369e+00  # Ow water
    332     111    2   0.556400  1.209111e+01  6.592603e+00  4.285857e+00  # Hw water
    333     111    2   0.556400  1.064318e+01  6.156625e+00  4.212926e+00  # Hw water
    334     112    1  -1.112800  1.426654e+01  6.974813e+00  5.456739e+00  # Ow water
    335     112    2   0.556400  1.435251e+01  7.715100e+00  4.856062e+00  # Hw water
    336     112    2   0.556400  1.482709e+01  7.201500e+00  6.198779e+00  # Hw water
    337     113    1  -1.112800  1.557734e+01  1.326957e+01  1.620448e+01  # Ow water
    338     113    2   0.556400  1.519181e+01  1.321819e+01  1.707910e+01  # Hw water
    339     113    2   0.556400  1.494585e+01  1.282690e+01  1.563747e+01  # Hw water
    340     114    1  -1.112800  6.927109e+00  1.526297e+01  1.738789e+00  # Ow water
    341     114    2   0.556400  7.063024e+00  1.434606e+01  1.499973e+00  # Hw water
    342     114    2   0.556400  6.027320e+00  1.529551e+01  2.063672e+00  # Hw water
    343     115    1  -1.112800  1.554411e+01  5.373544e+00  1.978815e+01  # Ow water
    344     115    2   0.556400  1.595476e+01  6.064268e+00  1.926805e+01  # Hw water
    345     115    2   0.556400  1.604013e+01  4.583778e+00  1.957260e+01  # Hw water
    346     116    1  -1.112800  2.096913e+01  1.611249e+00  1.067793e+01  # Ow water