created by fftool

13960 atoms
8880 bonds
4440 angles
4 atom types
1 bond types
1 angle types
0.000000 53.528708 xlo xhi
0.000000 53.528708 ylo yhi
0.000000 53.528708 zlo zhi
Atoms

      1       1    1  -1.112800  1.500022e+00  6.678809e+00  8.357995e+00  # Ow water
      2       1    2   0.556400  1.652221e+00  7.314240e+00  7.658501e+00  # Hw water
      3       1    2   0.556400  1.516061e+00  7.198296e+00  9.161801e+00  # Hw water
      4       2    1  -1.112800  2.987535e+01  4.780749e+01  1.798158e+01  # Ow water
      5       2    2   0.556400  2.896577e+01  4.808727e+01  1.787854e+01  # Hw water
      6       2    2   0.556400  2.992758e+01  4.748795e+01  1.888236e+01  # Hw water
      7       3    1  -1.112800  1.793478e+01  4.747945e+01  4.421927e+01  # Ow water
      8       3    2   0.556400  1.706089e+01  4.786835e+01  4.418319e+01  # Hw water
      9       3    2   0.556400  1.822662e+01  4.762797e+01  4.511871e+01  # Hw water
     10       4    1  -1.112800  1.432485e+01  2.459081e+01  3.436306e+01  # Ow water
     11       4    2   0.556400  1.457868e+01  2.509243e+01  3.358835e+01  # Hw water
     12       4    2   0.556400  1.407111e+01  2.373345e+01  3.402131e+01  # Hw water
     13       5    1  -1.112800  5.181853e+01  1.898419e+01  1.969418e+01  # Ow water
     14       5    2   0.556400  5.199937e+01  1.970583e+01  2.029647e+01  # Hw water
     15       5    2   0.556400  5.202869e+01  1.933537e+01  1.882889e+01  # Hw water
     16       6    1  -1.112800  3.951920e+01  3.628356e+01  1.591583e+01  # Ow water
     17       6    2   0.556400  3.964061e+01  3.615688e+01  1.685681e+01  # Hw water
     18       6    2   0.556400  3.974038e+01  3.543635e+01  1.552911e+01  # Hw water
     19       7    1  -1.112800  2.807004e+01  1.000538e+01  1.744732e+01  # Ow water
     20       7    2   0.556400  2.864278e+01  1.067654e+01  1.781846e+01  # Hw water
     21       7    2   0.556400  2.733029e+01  1.049397e+01  1.708638e+01  # Hw water
     22       8    1  -1.112800  3.653829e+01  4.322611e+00  4.103981e+01  # Ow water
     23       8    2   0.556400  3.745169e+01  4.102594e+00  4.085674e+01  # Hw water
     24       8    2   0.556400  3.604788e+01  3.539973e+00  4.078839e+01  # Hw water
     25       9    1  -1.112800  1.906395e+01  3.352281e+01  5.202865e+01  # Ow water
     26       9    2   0.556400  2.001059e+01  3.341157e+01  5.194083e+01  # Hw water
     27       9    2   0.556400  1.892679e+01  3.446822e+01  5.196838e+01  # Hw water
     28      10    1  -1.112800  4.579012e+01  4.127018e+01  1.193023e+01  # Ow water
     29      10    2   0.556400  4.616452e+01  4.119370e+01  1.105261e+01  # Hw water
     30      10    2   0.556400  4.615085e+01  4.208716e+01  1.227467e+01  # Hw water
     31      11    1  -1.112800  2.642702e+01  5.143634e+01  4.457474e+01  # Ow water
     32      11    2   0.556400  2.639858e+01  5.202869e+01  4.532610e+01  # Hw water
     33      11    2   0.556400  2.641143e+01  5.201487e+01  4.381232e+01  # Hw water
     34      12    1  -1.112800  4.175293e+01  2.736143e+01  7.900447e+00  # Ow water
     35      12    2   0.556400  4.142175e+01  2.732539e+01  8.797806e+00  # Hw water
     36      12    2   0.556400  4.205444e+01  2.647107e+01  7.719961e+00  # Hw water
     37      13    1  -1.112800  2.450820e+01  4.479659e+01  1.848377e+01  # Ow water
     38      13    2   0.556400  2.382279e+01  4.479693e+01  1.781561e+01  # Hw water
     39      13    2   0.556400  2.532437e+01  4.471545e+01  1.799029e+01  # Hw water
     40      14    1  -1.112800  1.627872e+01  1.772261e+01  3.630255e+01  # Ow water
     41      14    2   0.556400  1.715959e+01  1.740133e+01  3.611002e+01  # Hw water
     42      14    2   0.556400  1.575346e+01  1.744787e+01  3.555098e+01  # Hw water
     43      15    1  -1.112800  4.206355e+01  9.124239e+00  8.320347e+00  # Ow water
     44      15    2   0.556400  4.180332e+01  1.002321e+01  8.521250e+00  # Hw water
     45      15    2   0.556400  4.263515e+01  9.204805e+00  7.556797e+00  # Hw water
     46      16    1  -1.112800  9.082751e+00  4.526954e+01  1.685171e+01  # Ow water
     47      16    2   0.556400  9.960951e+00  4.565024e+01  1.684388e+01  # Hw water
     48      16    2   0.556400  8.701496e+00  4.552835e+01  1.601273e+01  # Hw water
     49      17    1  -1.112800  2.585101e+01  5.109690e+01  4.434358e+00  # Ow water
     50      17    2   0.556400  2.597260e+01  5.067957e+01  5.287162e+00  # Hw water
     51      17    2   0.556400  2.599414e+01  5.202863e+01  4.600543e+00  # Hw water
     52      18    1  -1.112800  1.134474e+01  2.566554e+01  1.764196e+01  # Ow water
     53      18    2   0.556400  1.111811e+01  2.652987e+01  1.798517e+01  # Hw water
     54      18    2   0.556400  1.085431e+01  2.505335e+01  1.819053e+01  # Hw water
     55      19    1  -1.112800  4.007842e+00  9.505035e+00  4.258152e+01  # Ow water
     56      19    2   0.556400  3.828855e+00  1.039237e+01  4.227036e+01  # Hw water
     57      19    2   0.556400  3.242641e+00  9.276911e+00  4.310940e+01  # Hw water
     58      20    1  -1.112800  2.686058e+01  7.388822e+00  2.271868e+01  # Ow water
     59      20    2   0.556400  2.668971e+01  8.162087e+00  2.218100e+01  # Hw water
     60      20    2   0.556400  2.611591e+01  7.344224e+00  2.331843e+01  # Hw water
     61      21    1  -1.112800  4.320514e+01  4.125532e+01  5.202869e+01  # Ow water
     62      21    2   0.556400  4.253127e+01  4.057596e+01  5.200411e+01  # Hw water
     63      21    2   0.556400  4.403214e+01  4.077341e+01  5.202093e+01  # Hw water
     64      22    1  -1.112800  3.355369e+01  4.947765e+01  3.588162e+01  # Ow water
     65      22    2   0.556400  3.418723e+01  4.945291e+01  3.516451e+01  # Hw water
     66      22    2   0.556400  3.270079e+01  4.942561e+01  3.545025e+01  # Hw water
     67      23    1  -1.112800  9.004009e+00  1.552239e+01  8.644608e+00  # Ow water
     68      23    2   0.556400  8.446888e+00  1.608459e+01  9.182916e+00  # Hw water
     69      23    2   0.556400  8.568388e+00  1.549786e+01  7.792633e+00  # Hw water
     70      24    1  -1.112800  8.268056e+00  7.700309e+00  2.208883e+00  # Ow water
     71      24    2   0.556400  8.574329e+00  7.029871e+00  2.819570e+00  # Hw water
     72      24    2   0.556400  7.770061e+00  8.310716e+00  2.752604e+00  # Hw water
     73      25    1  -1.112800  2.152184e+01  2.881547e+01  2.256060e+01  # Ow water
     74      25    2   0.556400  2.181526e+01  2.921676e+01  2.337859e+01  # Hw water
     75      25    2   0.556400  2.085653e+01  2.818189e+01  2.282923e+01  # Hw water
     76      26    1  -1.112800  3.358661e+01  1.097472e+01  9.028926e+00  # Ow water
     77      26    2   0.556400  3.451223e+01  1.092827e+01  9.268293e+00  # Hw water
     78      26    2   0.556400  3.344423e+01  1.189265e+01  8.797927e+00  # Hw water
     79      27    1  -1.112800  1.502281e+01  1.332314e+01  3.010902e+01  # Ow water
     80      27    2   0.556400  1.466658e+01  1.411220e+01  3.051733e+01  # Hw water
     81      27    2   0.556400  1.425386e+01  1.279208e+01  2.990182e+01  # Hw water
     82      28    1  -1.112800  3.780875e+01  3.861738e+01  4.960898e+00  # Ow water
     83      28    2   0.556400  3.774034e+01  3.874493e+01  5.907090e+00  # Hw water
     84      28    2   0.556400  3.869974e+01  3.829462e+01  4.826047e+00  # Hw water
     85      29    1  -1.112800  4.211904e+00  7.438129e+00  3.456759e+01  # Ow water
     86      29    2   0.556400  3.952753e+00  6.527705e+00  3.442548e+01  # Hw water
     87      29    2   0.556400  3.634248e+00  7.944080e+00  3.399614e+01  # Hw water
     88      30    1  -1.112800  1.788241e+01  1.395080e+01  4.756503e+01  # Ow water
     89      30    2   0.556400  1.809425e+01  1.361178e+01  4.669530e+01  # Hw water
     90      30    2   0.556400  1.762371e+01  1.485956e+01  4.741191e+01  # Hw water
     91      31    1  -1.112800  3.608689e+01  2.875829e+01  1.568438e+00  # Ow water
     92      31    2   0.556400  3.691794e+01  2.828830e+01  1.500008e+00  # Hw water
     93      31    2   0.556400  3.541996e+01  2.807242e+01  1.536548e+00  # Hw water
     94      32    1  -1.112800  2.741753e+01  4.642630e+01  3.834730e+01  # Ow water
     95      32    2   0.556400  2.757861e+01  4.588473e+01  3.911994e+01  # Hw water
     96      32    2   0.556400  2.646563e+01  4.652176e+01  3.831536e+01  # Hw water
     97      33    1  -1.112800  4.361438e+01  2.115952e+01  1.967171e+01  # Ow water
     98      33    2   0.556400  4.305599e+01  2.191794e+01  1.984268e+01  # Hw water
     99      33    2   0.556400  4.416672e+01  2.108780e+01  2.045017e+01  # Hw water
    100      34    1  -1.112800  4.202376e+01  4.192118e+01  4.894955e+01  # Ow water
    101      34    2   0.556400  4.110338e+01  4.217050e+01  4.903305e+01  # Hw water
    102      34    2   0.556400  4.244937e+01  4.231613e+01  4.971053e+01  # Hw water
    103      35    1  -1.112800  1.500625e+00  2.950882e+01  8.498902e+00  # Ow water
    104      35    2   0.556400  1.844133e+00  2.874205e+01  8.040329e+00  # Hw water
    105      35    2   0.556400  2.272821e+00  2.992573e+01  8.881166e+00  # Hw water
    106      36    1  -1.112800  2.181636e+01  2.600267e+01  2.438753e+01  # Ow water
    107      36    2   0.556400  2.217339e+01  2.579493e+01  2.352404e+01  # Hw water
    108      36    2   0.556400  2.117264e+01  2.531388e+01  2.455311e+01  # Hw water
    109      37    1  -1.112800  2.015758e+01  2.400141e+01  4.475010e+01  # Ow water
    110      37    2   0.556400  2.036681e+01  2.325839e+01  4.531612e+01  # Hw water
    111      37    2   0.556400  1.920592e+01  2.408655e+01  4.480782e+01  # Hw water
    112      38    1  -1.112800  4.312935e+01  9.771229e+00  3.186442e+01  # Ow water
    113      38    2   0.556400  4.351492e+01  1.034957e+01  3.120633e+01  # Hw water
    114      38    2   0.556400  4.386938e+01  9.269292e+00  3.220596e+01  # Hw water
    115      39    1  -1.112800  2.353942e+01  4.573845e+01  4.402966e+00  # Ow water
    116      39    2   0.556400  2.424545e+01  4.605177e+01  3.837650e+00  # Hw water
    117      39    2   0.556400  2.286366e+01  4.543460e+01  3.796952e+00  # Hw water
    118      40    1  -1.112800  4.792287e+01  3.821314e+01  1.575515e+00  # Ow water
    119      40    2   0.556400  4.700104e+01  3.796664e+01  1.500017e+00  # Hw water
    120      40    2   0.556400  4.792525e+01  3.894845e+01  2.188334e+00  # Hw water
    121      41    1  -1.112800  8.784701e+00  7.734368e+00  3.171269e+01  # Ow water
    122      41    2   0.556400  7.983462e+00  8.206965e+00  3.148709e+01  # Hw water
    123      41    2   0.556400  9.248199e+00  7.637022e+00  3.088087e+01  # Hw water
    124      42    1  -1.112800  4.782995e+01  3.359284e+01  1.461713e+01  # Ow water
    125      42    2   0.556400  4.729306e+01  3.320717e+01  1.392487e+01  # Hw water
    126      42    2   0.556400  4.837042e+01  3.286879e+01  1.493317e+01  # Hw water
    127      43    1  -1.112800  8.008063e+00  3.231048e+01  5.749730e+00  # Ow water
    128      43    2   0.556400  7.933277e+00  3.326120e+01  5.832045e+00  # Hw water
    129      43    2   0.556400  7.562510e+00  3.210497e+01  4.927857e+00  # Hw water
    130      44    1  -1.112800  2.598287e+01  1.514539e+00  1.321429e+01  # Ow water
    131      44    2   0.556400  2.680107e+01  1.500019e+00  1.371085e+01  # Hw water
    132      44    2   0.556400  2.532363e+01  1.801217e+00  1.384631e+01  # Hw water
    133      45    1  -1.112800  1.500092e+00  1.029405e+01  2.702537e+00  # Ow water
    134      45    2   0.556400  1.586648e+00  1.018876e+01  1.755092e+00  # Hw water
    135      45    2   0.556400  2.340540e+00  1.000065e+01  3.054382e+00  # Hw water
    136      46    1  -1.112800  3.862876e+01  4.054410e+00  4.333799e+01  # Ow water
    137      46    2   0.556400  3.814893e+01  4.880569e+00  4.339673e+01  # Hw water
    138      46    2   0.556400  3.947837e+01  4.296032e+00  4.296919e+01  # Hw water
    139      47    1  -1.112800  8.438173e+00  5.946614e+00  3.844309e+01  # Ow water
    140      47    2   0.556400  8.484110e+00  5.227545e+00  3.907321e+01  # Hw water
    141      47    2   0.556400  8.046623e+00  6.670016e+00  3.893258e+01  # Hw water
    142      48    1  -1.112800  8.512275e+00  4.667427e+00  4.966900e+01  # Ow water
    143      48    2   0.556400  9.045118e+00  3.919735e+00  4.939833e+01  # Hw water
    144      48    2   0.556400  8.607785e+00  5.300366e+00  4.895732e+01  # Hw water
    145      49    1  -1.112800  4.823483e+01  2.376161e+01  1.934878e+01  # Ow water
    146      49    2   0.556400  4.801344e+01  2.371831e+01  2.027902e+01  # Hw water
    147      49    2   0.556400  4.836999e+01  2.284959e+01  1.909155e+01  # Hw water
    148      50    1  -1.112800  2.418588e+01  2.821556e+01  2.190712e+01  # Ow water
    149      50    2   0.556400  2.444836e+01  2.904970e+01  2.229642e+01  # Hw water
    150      50    2   0.556400  2.400648e+01  2.764709e+01  2.265604e+01  # Hw water
    151      51    1  -1.112800  1.014906e+01  7.987642e+00  3.559888e+01  # Ow water
    152      51    2   0.556400  9.381790e+00  7.528234e+00  3.594015e+01  # Hw water
    153      51    2   0.556400  9.914756e+00  8.209562e+00  3.469772e+01  # Hw water
    154      52    1  -1.112800  3.253337e+01  7.427852e+00  1.365048e+01  # Ow water
    155      52    2   0.556400  3.276576e+01  6.518549e+00  1.383860e+01  # Hw water
    156      52    2   0.556400  3.160157e+01  7.397464e+00  1.343356e+01  # Hw water
    157      53    1  -1.112800  7.432076e+00  2.449954e+01  4.164748e+01  # Ow water
    158      53    2   0.556400  6.680968e+00  2.470722e+01  4.109165e+01  # Hw water
    159      53    2   0.556400  8.049508e+00  2.406058e+01  4.106239e+01  # Hw water
    160      54    1  -1.112800  4.519870e+00  1.104960e+01  2.831261e+01  # Ow water
    161      54    2   0.556400  4.034976e+00  1.093842e+01  2.913038e+01  # Hw water
    162      54    2   0.556400  5.411612e+00  1.126066e+01  2.858915e+01  # Hw water
    163      55    1  -1.112800  4.319917e+01  4.843786e+01  4.838160e+01  # Ow water
    164      55    2   0.556400  4.316950e+01  4.767039e+01  4.781034e+01  # Hw water
    165      55    2   0.556400  4.391157e+01  4.825390e+01  4.899388e+01  # Hw water
    166      56    1  -1.112800  4.235037e+01  9.418774e+00  4.882330e+01  # Ow water
    167      56    2   0.556400  4.184397e+01  1.000685e+01  4.826298e+01  # Hw water
    168      56    2   0.556400  4.196274e+01  8.555752e+00  4.867782e+01  # Hw water
    169      57    1  -1.112800  1.635938e+00  5.133490e+01  3.836257e+01  # Ow water
    170      57    2   0.556400  1.500043e+00  5.052290e+01  3.885085e+01  # Hw water
    171      57    2   0.556400  1.500008e+00  5.202863e+01  3.900793e+01  # Hw water
    172      58    1  -1.112800  3.770794e+01  1.129145e+01  3.120793e+01  # Ow water
    173      58    2   0.556400  3.821024e+01  1.051301e+01  3.096721e+01  # Hw water
    174      58    2   0.556400  3.773297e+01  1.184424e+01  3.042688e+01  # Hw water
    175      59    1  -1.112800  4.528900e+01  4.820691e+01  5.833452e+00  # Ow water
    176      59    2   0.556400  4.475722e+01  4.882931e+01  6.329485e+00  # Hw water
    177      59    2   0.556400  4.493449e+01  4.734895e+01  6.066811e+00  # Hw water
    178      60    1  -1.112800  3.972784e+01  5.201494e+01  1.397513e+01  # Ow water
    179      60    2   0.556400  3.882709e+01  5.172366e+01  1.411672e+01  # Hw water
    180      60    2   0.556400  4.011595e+01  5.202870e+01  1.485000e+01  # Hw water
    181      61    1  -1.112800  6.644666e+00  2.277419e+00  4.317580e+01  # Ow water
    182      61    2   0.556400  6.865742e+00  2.932345e+00  4.383794e+01  # Hw water
    183      61    2   0.556400  6.401756e+00  1.500113e+00  4.367881e+01  # Hw water
    184      62    1  -1.112800  3.712997e+01  2.185373e+01  4.226094e+01  # Ow water
    185      62    2   0.556400  3.716432e+01  2.269596e+01  4.180740e+01  # Hw water
    186      62    2   0.556400  3.649729e+01  2.133771e+01  4.176127e+01  # Hw water
    187      63    1  -1.112800  1.841972e+01  2.337420e+01  5.035869e+01  # Ow water
    188      63    2   0.556400  1.768179e+01  2.372465e+01  4.985982e+01  # Hw water
    189      63    2   0.556400  1.911039e+01  2.324714e+01  4.970826e+01  # Hw water
    190      64    1  -1.112800  1.598999e+01  3.924534e+01  4.486896e+01  # Ow water
    191      64    2   0.556400  1.575015e+01  3.934902e+01  4.578980e+01  # Hw water
    192      64    2   0.556400  1.556959e+01  3.842787e+01  4.460205e+01  # Hw water
    193      65    1  -1.112800  4.111297e+01  3.170676e+01  4.358227e+01  # Ow water
    194      65    2   0.556400  4.080905e+01  3.111813e+01  4.289134e+01  # Hw water
    195      65    2   0.556400  4.043298e+01  3.237777e+01  4.364220e+01  # Hw water
    196      66    1  -1.112800  4.081634e+01  1.715112e+01  1.784192e+00  # Ow water
    197      66    2   0.556400  4.116224e+01  1.724825e+01  2.671404e+00  # Hw water
    198      66    2   0.556400  4.062977e+01  1.804593e+01  1.500049e+00  # Hw water
    199      67    1  -1.112800  4.560346e+01  4.563963e+01  1.195322e+01  # Ow water
    200      67    2   0.556400  4.513099e+01  4.496551e+01  1.244165e+01  # Hw water
    201      67    2   0.556400  4.563638e+01  4.638856e+01  1.254841e+01  # Hw water
    202      68    1  -1.112800  4.913537e+01  3.577939e+01  2.624112e+01  # Ow water
    203      68    2   0.556400  4.839849e+01  3.552551e+01  2.568543e+01  # Hw water
    204      68    2   0.556400  4.982420e+01  3.603119e+01  2.562603e+01  # Hw water
    205      69    1  -1.112800  1.796815e+01  4.846689e+01  3.324972e+01  # Ow water
    206      69    2   0.556400  1.748591e+01  4.917298e+01  3.367997e+01  # Hw water
    207      69    2   0.556400  1.846235e+01  4.890230e+01  3.255516e+01  # Hw water
    208      70    1  -1.112800  1.495213e+01  9.590359e+00  5.164191e+01  # Ow water
    209      70    2   0.556400  1.413661e+01  9.733333e+00  5.116159e+01  # Hw water
    210      70    2   0.556400  1.563257e+01  9.603657e+00  5.096882e+01  # Hw water
    211      71    1  -1.112800  2.213424e+01  5.144280e+01  5.202688e+01  # Ow water
    212      71    2   0.556400  2.137774e+01  5.202869e+01  5.200100e+01  # Hw water
    213      71    2   0.556400  2.289139e+01  5.202841e+01  5.202870e+01  # Hw water
    214      72    1  -1.112800  1.224223e+01  4.500708e+01  1.823525e+01  # Ow water
    215      72    2   0.556400  1.218310e+01  4.504448e+01  1.918988e+01  # Hw water
    216      72    2   0.556400  1.318100e+01  4.504106e+01  1.805143e+01  # Hw water
    217      73    1  -1.112800  8.218260e+00  2.542144e+01  4.940623e+00  # Ow water
    218      73    2   0.556400  7.352379e+00  2.570779e+01  4.649959e+00  # Hw water
    219      73    2   0.556400  8.044148e+00  2.485812e+01  5.694670e+00  # Hw water
    220      74    1  -1.112800  3.116136e+01  2.505102e+00  2.098521e+01  # Ow water
    221      74    2   0.556400  3.114562e+01  3.288139e+00  2.043490e+01  # Hw water
    222      74    2   0.556400  3.122545e+01  1.777912e+00  2.036608e+01  # Hw water
    223      75    1  -1.112800  4.672563e+01  8.720830e+00  1.500684e+00  # Ow water
    224      75    2   0.556400  4.589812e+01  8.240764e+00  1.532037e+00  # Hw water
    225      75    2   0.556400  4.646834e+01  9.642801e+00  1.500003e+00  # Hw water
    226      76    1  -1.112800  1.339316e+01  2.403486e+00  3.512167e+00  # Ow water
    227      76    2   0.556400  1.346215e+01  1.500042e+00  3.820807e+00  # Hw water
    228      76    2   0.556400  1.380366e+01  2.924789e+00  4.202072e+00  # Hw water
    229      77    1  -1.112800  5.457754e+00  1.308210e+01  4.426099e+01  # Ow water
    230      77    2   0.556400  6.142587e+00  1.308398e+01  4.359224e+01  # Hw water
    231      77    2   0.556400  5.877734e+00  1.345599e+01  4.503562e+01  # Hw water
    232      78    1  -1.112800  1.755035e+01  3.730817e+01  3.009311e+01  # Ow water
    233      78    2   0.556400  1.782976e+01  3.667154e+01  3.075103e+01  # Hw water
    234      78    2   0.556400  1.715237e+01  3.801684e+01  3.059870e+01  # Hw water
    235      79    1  -1.112800  5.185569e+00  4.931685e+01  2.619714e+01  # Ow water
    236      79    2   0.556400  4.560694e+00  4.944955e+01  2.548429e+01  # Hw water
    237      79    2   0.556400  4.679336e+00  4.947858e+01  2.699326e+01  # Hw water
    238      80    1  -1.112800  5.105561e+00  1.179960e+01  2.523919e+01  # Ow water
    239      80    2   0.556400  4.447845e+00  1.222962e+01  2.578574e+01  # Hw water
    240      80    2   0.556400  5.714214e+00  1.140364e+01  2.586287e+01  # Hw water
    241      81    1  -1.112800  1.250353e+01  5.187820e+01  2.237960e+01  # Ow water
    242      81    2   0.556400  1.323038e+01  5.202860e+01  2.298399e+01  # Hw water
    243      81    2   0.556400  1.171848e+01  5.202869e+01  2.290618e+01  # Hw water
    244      82    1  -1.112800  4.831834e+00  3.650460e+01  2.314762e+01  # Ow water
    245      82    2   0.556400  4.848451e+00  3.559629e+01  2.344913e+01  # Hw water
    246      82    2   0.556400  5.678666e+00  3.686178e+01  2.341506e+01  # Hw water
    247      83    1  -1.112800  2.309340e+01  2.259449e+01  3.272244e+01  # Ow water
    248      83    2   0.556400  2.253340e+01  2.208606e+01  3.330906e+01  # Hw water
    249      83    2   0.556400  2.374575e+01  2.299270e+01  3.329873e+01  # Hw water
    250      84    1  -1.112800  1.372313e+01  2.725851e+01  1.288968e+01  # Ow water
    251      84    2   0.556400  1.399215e+01  2.719554e+01  1.380614e+01  # Hw water
    252      84    2   0.556400  1.370035e+01  2.635191e+01  1.258343e+01  # Hw water
    253      85    1  -1.112800  1.954868e+01  2.540339e+01  5.202859e+01  # Ow water
    254      85    2   0.556400  2.014895e+01  2.466894e+01  5.190019e+01  # Hw water
    255      85    2   0.556400  1.938948e+01  2.574019e+01  5.114686e+01  # Hw water
    256      86    1  -1.112800  5.202868e+01  2.394207e+01  1.253551e+01  # Ow water
    257      86    2   0.556400  5.199503e+01  2.467298e+01  1.315265e+01  # Hw water
    258      86    2   0.556400  5.175200e+01  2.431991e+01  1.170070e+01  # Hw water
    259      87    1  -1.112800  4.051642e+01  1.754849e+01  4.689811e+01  # Ow water
    260      87    2   0.556400  4.057558e+01  1.774985e+01  4.596420e+01  # Hw water
    261      87    2   0.556400  4.102366e+01  1.823887e+01  4.732508e+01  # Hw water
    262      88    1  -1.112800  3.886018e+01  1.873043e+01  3.524388e+01  # Ow water
    263      88    2   0.556400  3.791515e+01  1.884210e+01  3.534719e+01  # Hw water
    264      88    2   0.556400  3.924306e+01  1.945197e+01  3.574289e+01  # Hw water
    265      89    1  -1.112800  1.721300e+01  7.467395e+00  5.002585e+00  # Ow water
    266      89    2   0.556400  1.810086e+01  7.440629e+00  4.645904e+00  # Hw water
    267      89    2   0.556400  1.715642e+01  6.694063e+00  5.563821e+00  # Hw water
    268      90    1  -1.112800  2.850555e+01  1.481117e+01  3.456179e+01  # Ow water
    269      90    2   0.556400  2.904921e+01  1.556374e+01  3.479481e+01  # Hw water
    270      90    2   0.556400  2.765094e+01  1.500388e+01  3.494746e+01  # Hw water
    271      91    1  -1.112800  2.961837e+01  2.079033e+00  2.320953e+01  # Ow water
    272      91    2   0.556400  2.920108e+01  1.500006e+00  2.257171e+01  # Hw water
    273      91    2   0.556400  3.017366e+01  1.500201e+00  2.373187e+01  # Hw water
    274      92    1  -1.112800  3.321907e+01  3.664122e+01  2.043822e+01  # Ow water
    275      92    2   0.556400  3.376483e+01  3.588056e+01  2.023880e+01  # Hw water
    276      92    2   0.556400  3.341099e+01  3.726458e+01  1.973764e+01  # Hw water
    277      93    1  -1.112800  2.655847e+01  2.471601e+01  1.851613e+01  # Ow water
    278      93    2   0.556400  2.641324e+01  2.491804e+01  1.759184e+01  # Hw water
    279      93    2   0.556400  2.582218e+01  2.415401e+01  1.875751e+01  # Hw water
    280      94    1  -1.112800  3.730347e+01  5.187074e+01  1.121709e+01  # Ow water
    281      94    2   0.556400  3.699343e+01  5.202868e+01  1.210881e+01  # Hw water
    282      94    2   0.556400  3.824661e+01  5.202863e+01  1.125943e+01  # Hw water
    283      95    1  -1.112800  4.685106e+01  2.871344e+01  4.902678e+01  # Ow water
    284      95    2   0.556400  4.702051e+01  2.777287e+01  4.908004e+01  # Hw water
    285      95    2   0.556400  4.715644e+01  2.896332e+01  4.815470e+01  # Hw water
    286      96    1  -1.112800  5.202869e+01  3.599497e+01  5.183312e+01  # Ow water
    287      96    2   0.556400  5.175692e+01  3.594095e+01  5.091691e+01  # Hw water
    288      96    2   0.556400  5.202837e+01  3.693198e+01  5.202869e+01  # Hw water
    289      97    1  -1.112800  5.190672e+01  9.170974e+00  2.032782e+01  # Ow water
    290      97    2   0.556400  5.202867e+01  9.341769e+00  2.126172e+01  # Hw water
    291      97    2   0.556400  5.202860e+01  1.002351e+01  1.991001e+01  # Hw water
    292      98    1  -1.112800  2.169738e+01  2.658175e+01  2.011707e+01  # Ow water
    293      98    2   0.556400  2.228883e+01  2.647223e+01  2.086166e+01  # Hw water
    294      98    2   0.556400  2.144364e+01  2.750426e+01  2.014579e+01  # Hw water
    295      99    1  -1.112800  2.474740e+01  2.482483e+01  2.360477e+01  # Ow water
    296      99    2   0.556400  2.437466e+01  2.438284e+01  2.436762e+01  # Hw water
    297      99    2   0.556400  2.522963e+01  2.556700e+01  2.396927e+01  # Hw water
    298     100    1  -1.112800  2.527069e+01  3.906461e+01  2.622348e+01  # Ow water
    299     100    2   0.556400  2.473703e+01  3.962033e+01  2.679146e+01  # Hw water
    300     100    2   0.556400  2.463932e+01  3.849778e+01  2.578041e+01  # Hw water
    301     101    1  -1.112800  4.869400e+01  5.656087e+00  4.917350e+01  # Ow water
    302     101    2   0.556400  4.950261e+01  5.214847e+00  4.943366e+01  # Hw water
    303     101    2   0.556400  4.825653e+01  5.862070e+00  4.999959e+01  # Hw water
    304     102    1  -1.112800  1.368805e+01  4.951183e+01  4.939425e+01  # Ow water
    305     102    2   0.556400  1.273841e+01  4.940857e+01  4.945556e+01  # Hw water
    306     102    2   0.556400  1.384056e+01  4.979945e+01  4.849411e+01  # Hw water
    307     103    1  -1.112800  4.375996e+01  2.598735e+01  2.322432e+01  # Ow water
    308     103    2   0.556400  4.440524e+01  2.529384e+01  2.336175e+01  # Hw water
    309     103    2   0.556400  4.367790e+01  2.641150e+01  2.407848e+01  # Hw water
    310     104    1  -1.112800  1.350124e+01  1.042234e+01  2.098591e+01  # Ow water
    311     104    2   0.556400  1.411117e+01  1.100656e+01  2.143637e+01  # Hw water
    312     104    2   0.556400  1.378783e+01  1.043406e+01  2.007270e+01  # Hw water
    313     105    1  -1.112800  4.317662e+00  4.245036e+01  4.089681e+01  # Ow water
    314     105    2   0.556400  4.885916e+00  4.194903e+01  4.148160e+01  # Hw water
    315     105    2   0.556400  3.751270e+00  4.295126e+01  4.148377e+01  # Hw water
    316     106    1  -1.112800  2.244732e+01  3.815584e+01  3.038632e+01  # Ow water
    317     106    2   0.556400  2.319183e+01  3.820166e+01  2.978645e+01  # Hw water
    318     106    2   0.556400  2.175945e+01  3.866213e+01  2.995420e+01  # Hw water
    319     107    1  -1.112800  2.497531e+00  1.676553e+01  5.202862e+01  # Ow water
    320     107    2   0.556400  3.073402e+00  1.668128e+01  5.126869e+01  # Hw water
    321     107    2   0.556400  1.850454e+00  1.606894e+01  5.191779e+01  # Hw water
    322     108    1  -1.112800  3.531448e+01  4.885387e+01  2.572749e+01  # Ow water
    323     108    2   0.556400  3.460872e+01  4.902796e+01  2.635025e+01  # Hw water
    324     108    2   0.556400  3.609920e+01  4.877513e+01  2.626993e+01  # Hw water
    325     109    1  -1.112800  6.930186e+00  2.587037e+01  2.094530e+00  # Ow water
    326     109    2   0.556400  6.533099e+00  2.650685e+01  1.500019e+00  # Hw water
    327     109    2   0.556400  7.330067e+00  2.521983e+01  1.517368e+00  # Hw water
    328     110    1  -1.112800  4.933700e+01  3.564539e+00  1.700346e+01  # Ow water
    329     110    2   0.556400  4.843092e+01  3.663694e+00  1.729575e+01  # Hw water
    330     110    2   0.556400  4.937613e+01  4.044282e+00  1.617609e+01  # Hw water
    331     111    1  -1.112800  4.048462e+01  2.583587e+01  3.412281e+01  # Ow water
    332     111    2   0.556400  4.032309e+01  2.662430e+01  3.360462e+01  # Hw water
    333     111    2   0.556400  4.143843e+01  2.577277e+01  3.417280e+01  # Hw water
    334     112    1  -1.112800  8.756804e+00  3.852229e+00  1.440120e+01  # Ow water
    335     112    2   0.556400  8.454363e+00  3.555309e+00  1.354294e+01  # Hw water
    336     112    2   0.556400  9.532061e+00  4.381073e+00  1.421270e+01  # Hw water
    337     113    1  -1.112800  5.160081e+01  3.481907e+01  2.395933e+01  # Ow water
    338     113    2   0.556400  5.202869e+01  3.567419e+01  2.391553e+01  # Hw water
    339     113    2   0.556400  5.200603e+01  3.431165e+01  2.325609e+01  # Hw water
    340     114    1  -1.112800  1.562387e+01  4.139133e+01  1.292077e+01  # Ow water
    341     114    2   0.556400  1.514823e+01  4.150686e+01  1.374335e+01  # Hw water
    342     114    2   0.556400  1.645717e+01  4.099724e+01  1.317870e+01  # Hw water
    343     115    1  -1.112800  1.804393e+01  4.232770e+01  3.422875e+01  # Ow water
    344     115    2   0.556400  1.863127e+01  4.161575e+01  3.397503e+01  # Hw water
    345     115    2   0.556400  1.862824e+01  4.304687e+01  3.446877e+01  # Hw water
    346     116    1  -1.112800  3.269783e+01  3.165622e+01  1.392353e+01  # Ow water