13960
Atoms. Timestep: 0
Ow 15.8484 46.9749 14.3337
H 15.168 46.43 14.7292
H 16.6294 46.8031 14.8598
Ow 19.6155 12.6431 27.4145
H 19.183 12.8767 26.5931
H 19.9304 13.4761 27.7653
Ow 16.563 36.6765 15.387
H 16.3835 36.1352 16.1557
H 17.415 36.3731 15.0734
Ow 41.6653 47.7321 16.7892
H 41.8151 47.5773 17.7219
H 42.5261 47.9691 16.444
Ow 31.7636 36.391 2.98136
H 31.1351 35.7509 2.64732
H 31.2261 37.0429 3.43112
Ow 10.1192 39.1418 5.90729
H 10.1488 40.0986 5.90201
H 11.0197 38.8749 6.09201
Ow 43.0112 43.7813 36.262
H 43.6597 43.3157 35.7338
H 43.498 44.0825 37.0291
Ow 19.5978 14.2327 14.2023
H 18.8576 14.7365 13.8638
H 20.0297 14.8249 14.8179
Ow 32.6419 49.5682 4.92009
H 32.8955 50.4144 5.28852
H 32.4949 49.7453 3.99096
Ow 12.8601 46.753 24.2574
H 13.7799 46.8751 24.4925
H 12.4336 46.5052 25.0777
Ow 0.665072 22.3228 30.4296
H 52.661 22.2353 31.2606
H 1.34851 21.6537 30.4668
Ow 16.6069 5.59104 40.0206
H 16.481 4.81258 39.4781
H 17.5045 5.86857 39.8376
Ow 38.4812 10.8407 14.4163
H 38.9119 11.5652 14.87
H 39.1685 10.1835 14.3069
Ow 44.3694 1.88654 16.2381
H 44.2324 1.14417 16.8266
H 45.3199 1.9437 16.1412
Ow 35.0156 2.09248 41.5824
H 35.439 1.47563 40.9854
H 34.4802 1.54318 42.155
Ow 6.47301 31.3452 2.85507
H 6.80316 30.5401 2.45636
H 6.98725 32.0427 2.44852
Ow 41.5742 36.441 12.0221
H 41.021 35.6604 12.051
H 41.7699 36.6305 12.9397
Ow 41.5746 46.9013 36.4922
H 42.1075 46.7663 37.2758
H 41.9837 46.3494 35.8257
Ow 42.1983 43.9919 42.1109
H 41.686 44.6395 42.595
H 42.8964 43.7381 42.7146
Ow 3.98273 18.9317 2.52965
H 3.85875 19.0734 1.59116
H 3.39345 19.56 2.94714
Ow 19.2182 16.0195 34.9541
H 18.892 15.8899 34.0635
H 18.4697 16.373 35.4347
Ow 21.2641 40.3022 18.3792
H 22.105 40.2531 18.834
H 20.6989 40.7969 18.9726
Ow 39.3369 36.903 28.166
H 39.9114 36.2022 27.8575
H 39.7599 37.7085 27.8685
Ow 21.5113 33.2183 18.8837
H 21.3597 33.265 19.8277
H 22.3087 32.6963 18.7943
Ow 28.2378 51.872 30.3116
H 28.7057 51.1495 30.7304
H 28.6684 52.6604 30.6422
Ow 45.2491 21.2645 46.6987
H 44.9592 20.9921 47.5693
H 44.629 21.9469 46.4419
Ow 3.37562 32.1475 19.2231
H 3.48947 31.2957 18.8015
H 4.14269 32.6529 18.954
Ow 40.6752 2.71752 27.6277
H 40.3217 2.71281 26.7381
H 41.1793 1.90623 27.6898
Ow 25.3472 46.1163 42.1596
H 25.2048 45.721 43.0196
H 25.9533 45.5206 41.719
Ow 19.9386 49.7196 42.568
H 20.4397 49.516 41.7783
H 19.0303 49.5324 42.3309
Ow 35.3136 38.1129 23.098
H 35.335 37.6307 23.9246
H 35.8698 38.8767 23.2513
Ow 23.5488 1.2044 49.0785
H 24.3802 1.27441 49.5477
H 23.6412 52.8796 48.5426
Ow 43.4073 37.0735 34.7558
H 42.7297 36.886 34.1063
H 44.0356 37.6285 34.2939
Ow 22.8773 22.9899 10.0459
H 23.5323 22.5226 10.5643
H 23.1344 22.8338 9.13717
Ow 49.96 46.4483 0.790783
H 50.7725 46.7726 52.8654
H 49.7326 45.6809 52.7287
Ow 45.2752 32.2144 6.54829
H 45.9978 31.6229 6.75874
H 45.5795 33.076 6.8334
Ow 39.849 0.686615 16.2992
H 40.1522 1.42396 16.829
H 39.5721 52.4928 16.9382
Ow 7.44638 13.1798 33.6982
H 7.69474 14.1029 33.7462
H 8.18129 12.7126 34.0955
Ow 27.9599 21.4353 7.55094
H 28.2264 20.5785 7.88415
H 28.3539 21.4873 6.68013
Ow 23.4431 47.0857 15.3681
H 23.1252 47.8513 15.8467
H 22.9059 46.3616 15.6895
Ow 35.4029 50.2608 28.1791
H 34.4896 50.2653 28.4657
H 35.7681 51.0735 28.5289
Ow 24.533 17.0496 36.1859
H 23.7922 16.5391 35.8591
H 25.1766 17.0186 35.478
Ow 29.9969 25.019 12.4116
H 29.1523 25.455 12.5246
H 30.0267 24.7905 11.4826
Ow 51.827 18.6662 27.2716
H 52.2236 18.0325 27.8694
H 51.5185 19.3719 27.8399
Ow 32.4729 6.49754 47.5457
H 31.9031 7.1665 47.1662
H 32.4614 5.78304 46.9088
Ow 28.0797 43.2082 14.641
H 28.0727 42.7219 15.4654
H 28.7361 43.8926 14.7716
Ow 3.46599 42.72 28.1807
H 3.88951 42.501 29.0107
H 3.63402 41.9637 27.6186
Ow 37.0421 1.83134 6.46531
H 36.9147 2.15325 7.3577
H 36.8845 2.59486 5.90995
Ow 15.4739 35.5133 17.7084
H 14.5346 35.3604 17.6057
H 15.8165 34.6849 18.0441
Ow 20.3727 17.8019 24.8401
H 20.5573 18.695 24.5493
H 20.8607 17.7104 25.6585
Ow 21.5749 37.364 21.0609
H 22.4504 37.112 21.3547
H 21.4704 36.9269 20.2157
Ow 35.923 18.1801 19.9561
H 36.543 18.1691 20.6853
H 35.0628 18.1202 20.3717
Ow 40.302 29.158 36.443
H 39.8567 29.4364 37.2433
H 40.4462 29.9683 35.9543
Ow 35.6956 5.36818 36.3659
H 35.2272 5.07639 37.148
H 35.0609 5.9065 35.893
Ow 37.3835 31.0426 27.6696
H 36.5883 31.2581 28.1569
H 37.6203 30.166 27.9723
Ow 41.8501 51.1298 15.6163
H 42.3439 50.9779 16.4221
H 41.5885 52.0492 15.6648
Ow 10.0996 1.50331 44.7659
H 10.5685 1.55859 43.9332
H 10.0544 2.40764 45.0763
Ow 11.3859 4.41401 23.6774
H 11.1748 5.28326 23.3367
H 11.9587 4.02889 23.0143
Ow 52.0187 27.8308 51.1677
H 51.3536 28.1926 51.7533
H 51.6848 28.0061 50.2879
Ow 3.00678 40.324 38.3458
H 3.64462 39.8673 37.7973
H 2.33867 40.6303 37.7326
Ow 17.2053 40.9339 13.7351
H 16.3344 40.5954 13.5273
H 17.6386 40.2151 14.1955
Ow 18.4694 24.1421 19.5186
H 18.7004 23.4347 18.9166
H 17.6707 23.8387 19.9503
Ow 17.7167 35.9732 23.393
H 17.7412 35.0703 23.0763
H 16.7922 36.2176 23.3499
Ow 49.3348 14.2605 31.2493
H 48.5484 13.7252 31.1432
H 49.2189 14.6923 32.0956
Ow 26.0501 11.8598 42.1154
H 26.2015 11.8917 43.06
H 26.262 12.7413 41.8084
Ow 36.1836 50.3454 15.1395
H 36.8292 49.9666 15.7361
H 35.4942 50.6801 15.7131
Ow 41.5178 27.7145 7.80261
H 41.0532 27.837 6.97478
H 40.9676 28.1502 8.45345
Ow 50.0439 48.3065 44.6115
H 50.778 47.7747 44.9191
H 50.3834 49.2014 44.6017
Ow 25.9936 38.8764 52.8724
H 26.4407 38.2812 52.2707
H 26.1422 38.4979 1.27602
Ow 15.081 18.5754 36.7605
H 14.9543 18.999 35.9115
H 15.799 17.959 36.6164
Ow 16.7757 15.0545 41.9122
H 15.8492 15.2148 41.7328
H 16.9908 14.2812 41.3907
Ow 18.0847 46.2453 15.6873
H 18.8144 46.5716 15.1608
H 17.8542 45.4078 15.2851
Ow 13.2017 13.8298 7.71467
H 13.0587 12.9314 7.41695
H 14.1477 13.8911 7.84682
Ow 25.5517 17.2691 10.0419
H 26.1713 17.6651 10.6547
H 24.9105 16.8289 10.5999
Ow 11.5626 41.7079 1.78344
H 11.6733 40.7575 1.80851
H 12.1548 42.0365 2.45986
Ow 21.2623 24.1424 49.5999
H 21.6248 23.2638 49.7141
H 21.0323 24.1884 48.6719
Ow 36.406 16.6165 49.5136
H 35.7664 17.0044 48.9163
H 36.1041 16.8698 50.3859
Ow 20.5273 21.8008 10.9064
H 21.2897 22.0685 10.3932
H 20.7534 20.9311 11.2362
Ow 49.4939 8.04475 19.2203
H 49.4894 7.89233 20.1653
H 48.622 7.77691 18.93
Ow 11.3311 46.7973 47.6437
H 12.285 46.7335 47.6924
H 11.1069 47.5061 48.2466
Ow 3.78446 45.2969 5.92515
H 4.44943 44.68 6.23089
H 4.18749 46.1582 6.03502
Ow 35.899 52.318 4.72666
H 36.3034 52.9088 5.36196
H 36.3852 51.4985 4.81766
Ow 35.5392 46.9734 30.6207
H 35.4026 46.9542 29.6734
H 35.5971 46.052 30.8735
Ow 49.8617 27.5586 38.479
H 50.2943 26.7297 38.684
H 49.9966 28.0987 39.2577
Ow 5.61653 9.68995 29.6595
H 6.07402 9.19101 28.9827
H 5.65558 10.5971 29.3565
Ow 23.0521 49.8069 25.1621
H 22.2109 49.7654 25.6168
H 23.1894 48.9197 24.8299
Ow 37.0896 19.7496 33.4468
H 36.649 19.4253 32.6613
H 36.6887 19.2612 34.1658
Ow 24.7891 28.2689 24.6295
H 25.3064 27.8642 25.3258
H 25.2246 28.0009 23.8203
Ow 12.6877 49.7015 39.729
H 12.1463 49.2361 39.0915
H 13.3885 50.0935 39.208
Ow 1.28121 10.0918 36.5361
H 1.52765 10.7586 37.1771
H 1.82693 9.33617 36.7539
Ow 38.2219 6.39264 43.4418
H 37.8123 7.04336 42.8718
H 37.8218 5.56209 43.1842
Ow 48.6162 16.8856 16.8057
H 49.0459 17.5903 16.321
H 49.2916 16.5553 17.3981
Ow 35.2982 24.6391 36.1286
H 34.5025 25.153 35.9903
H 35.3718 24.5621 37.0799
Ow 9.07333 49.8745 36.9803
H 8.4831 49.2592 36.5453
H 9.84718 49.3537 37.1951
Ow 46.716 25.5778 32.1524
H 45.945 25.6054 31.5858
H 46.7499 24.6747 32.4677
Ow 48.1379 5.58636 50.0112
H 48.746 6.25051 50.3357
H 48.1945 5.65427 49.0581
Ow 1.60032 41.3863 42.1292
H 0.997242 41.0946 41.4455
H 1.99855 42.1813 41.7748
Ow 36.5088 21.346 49.5592
H 35.5634 21.4733 49.6374
H 36.7263 20.7281 50.2571
Ow 25.7992 13.19 14.8366
H 26.224 12.3324 14.8534
H 26.1701 13.6265 14.0696
Ow 39.568 26.2063 3.08071
H 39.275 26.7847 2.37653
H 40.385 26.5982 3.3889
Ow 40.4906 33.6718 10.9537
H 39.8148 34.3482 10.998
H 40.5947 33.4975 10.0183
Ow 47.2287 9.04765 10.72
H 47.3234 8.0957 10.7525
H 46.4081 9.19124 10.2486
Ow 52.7395 14.6017 33.0505
H 52.6826 14.4767 33.9978
H 52.1178 13.9708 32.6874
Ow 35.0649 27.9096 29.5841
H 34.5446 27.1281 29.7707
H 35.733 27.9225 30.2694
Ow 47.2015 34.479 26.7518
H 47.4143 34.8014 27.6276
H 47.357 33.5356 26.799
Ow 33.1769 7.05407 9.56997
H 33.1059 7.89662 10.0186
H 32.293 6.68828 9.605
Ow 8.83365 5.55393 33.1185
H 8.08316 5.19586 32.6444
H 8.44694 6.1049 33.7991
Ow 13.6238 38.1332 51.9647
H 14.4187 38.2769 52.4782
H 13.8424 38.4531 51.0894
Ow 10.0234 6.01254 26.9022
H 9.90662 6.5701 27.6714
H 9.91192 6.60402 26.1579
Ow 46.1405 19.915 27.9799
H 46.2981 20.7704 27.5802
H 46.984 19.6682 28.3591
Ow 50.9609 11.5042 27.8165
H 50.4833 11.2617 28.6099
H 50.6106 10.9255 27.1393
Ow 49.4141 12.0551 4.24761
H 49.9133 11.2555 4.41395
H 49.1847 12.0062 3.31959
Ow 44.1308 52.3498 52.8576
H 43.4712 52.5106 1.06942
H 44.8452 52.9496 0.609534
Ow 25.1531 30.4323 36.561
H 25.9957 30.1196 36.8905
H 25.096 31.337 36.8686
Ow 39.0911 16.7182 24.9505
H 38.5662 17.1797 25.6045
H 38.752 15.8231 24.9587
Ow 33.097 34.0555 41.8912
H 32.2167 33.9027 42.2346
H 33.3931 34.8503 42.3348
Ow 25.0254 43.4307 47.0908
H 25.2189 43.5597 48.0194
H 24.0706 43.4721 47.0367
Ow 50.109 25.3843 1.66385
H 49.4498 25.8687 1.16691
H 49.6342 24.637 2.02755
Ow 47.1472 29.6018 16.3149
H 46.638 28.7996 16.1995
H 47.1742 29.9964 15.4432
Ow 47.5137 36.1831 9.87133
H 46.5983 36.4466 9.96525
H 47.7601 35.8588 10.7375
Ow 10.5676 36.2205 30.342
H 10.9081 35.4434 29.8987
H 11.1788 36.9184 30.1062
Ow 11.289 39.2179 9.10334
H 11.3304 38.4115 9.61743
H 11.6734 38.9838 8.25851
Ow 8.31734 17.5679 39.4532
H 9.17494 17.8374 39.1244
H 8.51334 16.9372 40.1462
Ow 48.6544 33.92 7.296
H 49.4975 34.2349 7.62186
H 48.8744 33.1627 6.75349
Ow 1.71509 31.2777 24.9472
H 1.66037 31.8624 25.7031
H 1.79785 30.4027 25.3262
Ow 29.0352 38.3056 30.1258
H 28.5583 37.4815 30.2242
H 28.3816 38.9832 30.2984
Ow 5.98318 31.0902 21.6276
H 6.48381 30.4222 22.0959
H 6.25738 31.9174 22.0237
Ow 4.76687 8.4509 45.442
H 4.8374 8.12351 44.5453
H 5.63541 8.8021 45.6383
Ow 49.9198 47.0695 39.0287
H 49.4212 47.0327 39.845
H 49.286 47.3607 38.3732
Ow 1.97777 47.1462 2.69063
H 1.39752 47.6308 2.1035
H 2.66259 47.7734 2.92275
Ow 3.10006 15.8951 34.8663
H 3.19447 15.2224 35.5406
H 2.27803 16.3361 35.0807
Ow 48.4552 47.7107 36.8902
H 47.6411 48.1999 37.0094
H 49.1427 48.3754 36.9308
Ow 9.52082 15.9423 16.357
H 9.29768 15.7193 17.2607
H 9.93842 15.1535 16.0112
Ow 36.8324 13.9966 5.91975
H 37.2805 13.3805 5.34025
H 35.9389 14.0399 5.57927
Ow 48.4353 10.8072 41.7893
H 48.9352 10.01 41.614
H 47.5549 10.4968 42.001
Ow 3.62869 40.6941 16.9308
H 3.70683 39.7575 16.7492
H 4.34195 41.0952 16.4342
Ow 48.7632 5.90777 27.0709
H 48.1231 5.36071 26.6157
H 48.5173 6.8045 26.8438
Ow 14.9603 19.4835 32.1493
H 14.8324 19.5522 31.2032
H 14.3647 18.7855 32.4219
Ow 32.8663 26.6345 16.4844
H 32.4077 26.7004 15.6469
H 33.1655 25.7261 16.5234
Ow 3.72745 34.1764 44.5656
H 4.49357 33.7496 44.1819
H 3.05906 33.4916 44.5912
Ow 31.8081 35.7138 11.284
H 31.1145 35.1536 10.9357
H 31.7464 36.5194 10.7708
Ow 44.7127 19.828 1.82518
H 44.7845 19.2117 1.09632
H 44.859 19.2942 2.60613
Ow 7.58254 12.4253 25.9887
H 8.00252 11.5703 25.8952
H 7.0078 12.3286 26.7481
Ow 41.7574 30.8303 34.1466
H 41.9174 31.1391 33.2548
H 42.2507 30.0123 34.2093
Ow 35.0794 6.9617 48.6482
H 34.2259 6.83472 48.234
H 35.7115 6.82225 47.943
Ow 26.297 43.5919 5.30411
H 27.1521 43.2319 5.06871
H 26.4521 44.5308 5.40715
Ow 1.36723 1.69718 2.03838
H 1.6656 1.08744 2.71323
H 2.10215 2.29814 1.91603
Ow 13.2459 24.7364 1.18341
H 12.3083 24.6596 1.36009
H 13.2965 24.9878 52.7241
Ow 29.4214 11.5504 41.1349
H 28.7137 11.2357 41.6974
H 29.4595 12.4923 41.3015
Ow 2.92461 2.68285 26.6995
H 3.46076 2.9163 25.9417
H 2.20615 3.31526 26.6892
Ow 9.98219 20.8178 30.2671
H 10.5611 21.0196 31.0022
H 9.18679 21.3204 30.443
Ow 33.8129 18.6824 24.2509
H 34.4116 17.978 24.499
H 34.0953 18.9394 23.3732
Ow 43.1178 48.6364 4.69372
H 43.8669 48.7972 5.26753
H 42.4369 48.3003 5.2765
Ow 28.5479 23.8866 22.5998
H 28.8855 24.5701 23.1787
H 29.2636 23.2547 22.5318
Ow 14.3811 2.93837 25.8115
H 13.5513 3.3623 26.0306
H 14.1397 2.23588 25.2078
Ow 26.4134 17.3483 41.2768
H 26.1193 17.4755 42.1787
H 27.314 17.6727 41.2701
Ow 32.4359 4.95282 50.7117
H 32.9221 5.73244 50.9802
H 32.9767 4.55615 50.0287
Ow 42.2082 6.84435 6.73408
H 42.6231 6.19371 6.16771
H 42.9287 7.21032 7.24707
Ow 2.82561 14.0836 43.786
H 2.81653 14.826 43.182
H 2.38767 13.3796 43.3076
Ow 8.36992 21.0717 13.1954
H 8.38279 21.7083 12.4808
H 7.71999 20.4223 12.9268
Ow 15.4905 50.5072 3.29391
H 14.9081 50.4349 2.53774
H 16.3175 50.1275 2.99708
Ow 24.1648 44.5589 26.989
H 23.4337 44.9809 27.4403
H 23.7593 43.8578 26.4788
Ow 12.9597 7.74708 15.4856
H 12.6648 8.59429 15.8195
H 12.5311 7.66227 14.634
Ow 5.83295 36.2709 16.1963
H 6.41172 36.7926 15.6404
H 5.19838 36.9 16.5394
Ow 38.1835 16.2065 10.7977
H 38.7067 16.3828 11.5796
H 37.6395 16.9869 10.6919
Ow 20.3428 39.9455 52.8791
H 19.9119 39.8094 1.25998
H 21.2624 39.7362 0.579813
Ow 7.31559 7.1416 41.2995
H 7.6999 8.01578 41.2336
H 7.14597 6.88504 40.393
Ow 33.183 46.6774 37.0818
H 33.5717 47.3258 37.6689
H 32.3691 46.4194 37.5144
Ow 10.5752 20.3146 23.9053
H 10.6451 20.7578 23.0598
H 11.197 19.5891 23.848
Ow 29.8152 25.9899 41.2697
H 30.1947 26.6802 41.8134
H 30.5468 25.4013 41.0837
Ow 41.5579 7.70401 45.1499
H 40.933 8.20263 44.6234
H 41.2161 7.75727 46.0424
Ow 6.29589 16.3461 14.7161
H 5.49069 16.0469 14.2938
H 6.00708 17.0152 15.3366
Ow 24.3718 18.417 15.4121
H 23.6824 17.877 15.0257
H 24.8833 18.7249 14.6639
Ow 7.72805 33.4457 12.2783
H 6.97538 33.8426 12.7166
H 7.62541 32.506 12.429
Ow 0.828665 31.8594 32.6869
H 1.78443 31.8827 32.7338
H 53.0162 31.5557 33.5519
Ow 14.7057 44.6478 12.5648
H 14.4422 43.9438 11.9722
H 14.869 45.3962 11.9906
Ow 13.4738 9.32902 7.90097
H 14.3285 9.26531 7.47478
H 13.1032 10.1488 7.57417
Ow 44.0852 44.1438 48.055
H 44.6162 44.0544 48.8464
H 43.2975 43.6307 48.2353
Ow 42.7004 30.5398 47.0619
H 42.3288 30.5141 47.9436
H 42.4728 29.6918 46.6806
Ow 14.2191 15.4281 40.9121
H 14.6969 15.5679 40.0946
H 14.0481 16.3096 41.2438
Ow 32.1428 41.3197 22.9857
H 32.1964 42.187 23.3872
H 32.4907 40.7255 23.6506
Ow 39.461 18.8606 31.1481
H 40.2843 18.8434 31.6362
H 39.7222 18.7572 30.2331
Ow 4.39023 42.2275 40.0465
H 3.74483 42.9248 39.9303
H 4.1326 41.5546 39.4164
Ow 37.889 13.3551 41.6489
H 38.0439 13.0977 42.5578
H 37.5716 12.558 41.2245
Ow 47.6908 52.3295 45.1571
H 48.4282 52.7355 44.7015
H 46.9592 52.9293 45.0117
Ow 31.8087 15.1698 51.6417
H 31.1563 14.6039 52.0544
H 32.5304 15.2016 52.2696
Ow 27.6595 48.1638 12.4476
H 26.9249 48.6465 12.0687
H 28.1484 48.8209 12.9431
Ow 24.6936 28.1146 17.4478
H 24.5311 28.6686 18.2113
H 25.6133 27.8614 17.5264
Ow 45.8617 47.8433 23.0184
H 46.4398 47.177 22.6468
H 45.3662 48.1756 22.2699
Ow 52.0898 4.79511 0.942268
H 52.7828 5.29286 52.9713
H 52.4959 4.46773 1.74483
Ow 11.0121 43.8495 22.7834
H 10.3606 43.5714 22.1396
H 10.6628 44.6657 23.1411
Ow 12.3491 20.0044 14.544
H 11.6665 19.744 15.1625
H 12.4875 20.9355 14.7173
Ow 17.9731 44.7799 6.05214
H 17.1619 44.7248 6.55724
H 17.7074 44.5982 5.15071
Ow 48.1515 9.35314 50.8317
H 48.2321 10.2982 50.7028
H 47.668 9.04667 50.0645
Ow 48.6936 27.232 13.177
H 49.0418 26.8209 13.9682
H 47.745 27.1267 13.2494
Ow 31.4298 10.0467 32.3535
H 31.0605 9.165 32.4033
H 31.7776 10.1113 31.4641
Ow 44.473 10.7011 24.9554
H 44.784 10.5783 24.0585
H 43.5778 11.0253 24.8567
Ow 17.924 13.3936 52.545
H 18.6812 13.0105 52.9878
H 17.7515 12.8038 51.811
Ow 37.8552 28.582 42.1531
H 37.6409 28.9872 41.3128
H 38.6425 28.0668 41.9773
Ow 38.605 5.72078 4.79628
H 39.0474 5.60662 5.63739
H 37.9695 6.41938 4.95226
Ow 36.1308 35.018 39.1747
H 36.4926 34.2967 38.6598
H 36.8544 35.3 39.7343
Ow 3.57096 18.5444 52.2376
H 2.67097 18.2802 52.0467
H 4.05033 17.7201 52.3216
Ow 17.9911 26.1361 48.2245
H 18.6681 25.4606 48.264
H 18.3169 26.7651 47.5808
Ow 32.5735 9.86913 42.3423
H 33.2853 10.3858 41.9646
H 32.4909 9.11325 41.7609
Ow 49.3841 50.9364 46.9647
H 48.7683 51.3736 46.3766
H 48.8903 50.8041 47.7739
Ow 24.109 14.8487 5.40762
H 23.4823 14.7967 4.68599
H 24.9642 14.7427 4.99089
Ow 21.7643 44.7457 7.14393
H 21.2608 44.0043 6.80759
H 21.1431 45.231 7.68697
Ow 17.2409 35.3123 47.4305
H 16.953 35.4208 48.3369
H 17.7034 34.4742 47.4243
Ow 15.6737 36.3646 36.567
H 15.1468 35.9567 35.8798
H 16.4506 36.6901 36.1123
Ow 11.4435 33.4215 19.0446
H 10.4878 33.378 19.0762
H 11.7347 32.6219 19.483
Ow 37.5038 34.8112 43.945
H 37.4309 33.9243 43.5922
H 36.8161 34.8626 44.6089
Ow 35.6422 29.1017 23.4937
H 35.9845 28.8036 22.6509
H 36.3934 29.5047 23.9289
Ow 2.97939 17.9772 17.6981
H 2.23707 17.7569 17.1354
H 2.86167 17.4311 18.4754
Ow 48.2495 31.0207 30.5014
H 47.4364 30.9086 30.9939
H 48.4814 30.1368 30.2167
Ow 8.03013 15.9709 31.2568
H 8.75117 15.3502 31.3619
H 7.74925 15.8608 30.3484
Ow 41.7726 51.0924 30.8453
H 42.3379 50.4093 31.2062
H 41.2465 50.6436 30.1834
Ow 38.1791 44.9813 10.9388
H 38.3752 44.7568 10.0292
H 38.8521 45.618 11.1793
Ow 45.279 6.78088 7.89208
H 45.1774 7.64238 8.29673
H 44.7385 6.19936 8.42683
Ow 47.0636 36.9403 20.0298
H 46.43 36.2239 19.9897
H 46.6636 37.6433 19.518
Ow 24.3197 41.4676 52.9178
H 23.8762 41.7778 52.1283
H 23.6315 41.4341 1.11933
Ow 6.18812 20.5948 48.9185
H 6.57594 19.7947 49.2729
H 6.80527 20.8832 48.246
Ow 20.0603 31.8567 52.882
H 19.8674 32.1498 1.30959
H 20.8691 31.3516 52.9655
Ow 50.4471 14.2709 1.94334
H 50.959 14.7492 1.29115
H 50.0147 13.5762 1.44668
Ow 30.2059 36.6838 46.7464
H 30.7676 36.5678 45.98
H 29.6513 37.4323 46.5263
Ow 48.6137 48.6658 11.1138
H 49.084 49.4547 10.844
H 47.7748 48.7181 10.6558
Ow 16.5357 52.0089 42.0501
H 15.937 52.3015 41.363
H 16.758 51.1099 41.8079
Ow 17.4901 42.4181 43.1175
H 18.1872 42.6978 43.7108
H 17.2339 43.2161 42.6552
Ow 22.7119 9.7917 6.12479
H 22.8544 10.5913 6.63131
H 23.5181 9.28844 6.23899
Ow 21.4237 50.3661 31.2307
H 21.6019 49.4261 31.2017
H 22.2879 50.7756 31.1894
Ow 24.66 10.5872 8.73952
H 25.0236 11.4695 8.81459
H 24.6469 10.4123 7.79853
Ow 21.9764 18.9968 41.2829
H 22.4514 18.3123 41.7543
H 22.6485 19.4451 40.7694
Ow 13.5248 32.2289 39.0897
H 13.394 31.6149 39.8123
H 13.4095 33.093 39.4851
Ow 17.4737 38.3857 39.5558
H 18.0565 38.8455 38.9515
H 17.3429 39.0006 40.2776
Ow 43.2624 50.5721 33.6675
H 42.5381 50.3059 34.2338
H 43.2687 51.5279 33.7192
Ow 38.8555 43.3595 45.6712
H 38.7149 44.0647 46.3029
H 39.7823 43.138 45.7611
Ow 34.0906 38.1408 46.6984
H 34.4145 37.435 46.1387
H 34.3154 38.9431 46.2273
Ow 33.2467 36.8031 16.278
H 33.7167 37.1247 15.5086
H 33.3817 37.4795 16.9418
Ow 49.2299 24.2423 26.7842
H 48.4899 24.837 26.662
H 49.058 23.8144 27.623
Ow 37.8712 12.6069 35.8942
H 37.9285 11.7003 35.5926
H 37.2305 12.5833 36.6049
Ow 37.3797 14.0682 47.3883
H 36.4373 14.2354 47.3797
H 37.7522 14.7659 46.8491
Ow 34.2673 48.4417 21.932
H 34.8913 47.9062 21.442
H 33.6231 48.7168 21.2797
Ow 16.9397 3.99596 51.6438
H 16.6829 3.55311 52.4526
H 17.4506 4.75104 51.9354
Ow 9.93099 31.8964 0.99328
H 9.29615 31.3104 0.581272
H 10.7566 31.7076 53.0102
Ow 18.0658 16.2246 12.8354
H 18.6726 16.356 12.1069
H 17.2018 16.1906 12.4249
Ow 2.54671 10.7877 6.49821
H 2.88619 11.4221 7.12943
H 2.37245 11.3026 5.71039
Ow 24.9768 2.76355 22.1106
H 24.4731 3.56253 22.2663
H 24.8563 2.24513 22.9062
Ow 4.90641 4.00425 51.5622
H 4.66223 3.76573 50.668
H 4.08607 3.96407 52.0538
Ow 7.50535 10.2275 6.70911
H 7.04914 9.44493 6.39969
H 8.43201 9.98841 6.68985
Ow 19.0787 31.3189 33.3282
H 19.5381 31.7625 32.6151
H 19.7405 30.7518 33.724
Ow 28.0368 11.326 32.1323
H 27.1872 11.1356 32.53
H 28.1778 10.6098 31.5131
Ow 27.2404 12.2268 1.23111
H 26.9826 12.6404 52.8702
H 27.0924 12.9007 1.89457
Ow 19.1061 18.0047 30.6417
H 18.4562 17.3712 30.9459
H 19.8658 17.4734 30.4032
Ow 47.8782 48.3589 13.9428
H 46.9777 48.0658 13.8038
H 48.1972 48.5781 13.0674
Ow 44.0487 27.6557 25.1757
H 43.5782 28.4827 25.2798
H 44.9283 27.913 24.8996
Ow 38.8396 39.1459 43.3121
H 38.3141 39.576 43.9867
H 39.0529 38.2899 43.6836
Ow 10.0259 48.1303 1.65788
H 10.44 47.6711 0.927164
H 10.3651 47.6933 2.43905
Ow 19.574 4.95009 19.5056
H 18.9875 4.20153 19.6147
H 20.1891 4.88149 20.2358
Ow 5.23378 43.4366 13.7498
H 4.41869 42.9509 13.8762
H 5.43972 43.7892 14.6156
Ow 8.12752 9.89204 11.6619
H 8.23717 9.25746 12.3701
H 7.34276 9.60052 11.1978
Ow 44.6257 38.3485 13.7986
H 44.5503 39.2772 13.5797
H 45.4941 38.2645 14.1925
Ow 29.2489 39.5866 26.8528
H 28.4912 40.1574 26.9803
H 29.4582 39.6697 25.9225
Ow 19.5261 48.0508 13.9009
H 20.4399 48.1282 13.6267
H 19.3688 48.8297 14.4346
Ow 3.8229 47.3845 10.8067
H 3.6415 47.6778 11.6997
H 4.49385 46.7093 10.9076
Ow 13.9595 38.385 49.1949
H 13.2306 38.7363 48.6835
H 14.5599 38.026 48.5415
Ow 25.414 3.949 15.789
H 25.2948 4.8986 15.806
H 25.7711 3.76745 14.9197
Ow 36.5056 52.0394 17.9656
H 36.4036 52.8379 18.4836
H 35.7589 52.0448 17.3668
Ow 33.2803 24.873 33.1221
H 33.2702 23.9183 33.0539
H 33.647 25.1692 32.2889
Ow 29.563 52.0611 6.19555
H 30.1061 51.6637 6.87627
H 29.0473 52.7232 6.65598
Ow 17.6554 38.7896 43.5158
H 18.1416 38.4123 44.2489
H 18.3303 39.147 42.9388
Ow 35.4912 45.8874 10.5668
H 35.6297 46.651 10.0065
H 36.3699 45.5407 10.7216
Ow 11.8045 12.259 52.0386
H 11.5629 11.3405 51.9199
H 12.2302 12.2864 52.8955
Ow 40.9199 15.6101 26.8654
H 40.4588 15.318 26.079
H 41.5519 16.2548 26.5475
Ow 38.3032 51.0408 8.05583
H 38.2421 50.4694 7.29029
H 39.0291 51.6321 7.85663
Ow 31.1959 38.6832 48.6888
H 31.1642 38.045 47.9761
H 31.5313 39.4816 48.2813
Ow 26.7879 44.7281 21.0647
H 25.9607 45.2091 21.0411
H 27.1482 44.9127 21.9321
Ow 49.1831 4.14797 29.1506
H 48.9085 4.97885 28.7627
H 49.2841 3.55668 28.4047
Ow 39.8531 52.123 13.3205
H 39.3807 52.2369 12.4958
H 39.2218 52.3729 13.9952
Ow 12.3771 20.068 17.4547
H 11.6248 20.6235 17.25
H 12.9678 20.6366 17.9487
Ow 13.3671 22.76 26.9649
H 12.6962 22.706 27.6455
H 13.3167 23.6623 26.6493
Ow 24.5007 13.653 36.7312
H 23.8765 13.6434 36.0056
H 24.302 12.8601 37.2293
Ow 7.17237 10.3593 45.5636
H 6.9742 10.4164 46.4983
H 7.91767 9.76084 45.5125
Ow 29.9069 49.3113 5.40666
H 29.4637 50.1033 5.71082
H 30.8318 49.5545 5.36608
Ow 1.3547 4.74337 7.7609
H 52.9464 4.53042 7.42652
H 1.19868 5.40994 8.42991
Ow 25.277 41.1295 24.3411
H 26.0991 41.6112 24.4316
H 25.404 40.3377 24.8638
Ow 27.7673 47.4836 45.2148
H 28.2374 48.0782 44.6304
H 27.089 47.0924 44.6642
Ow 20.7601 13.234 32.2324
H 19.8707 13.3793 31.9097
H 21.1344 12.5957 31.6251
Ow 43.1092 28.3132 34.1134
H 43.1526 28.2683 33.1583
H 44.022 28.3867 34.392
Ow 16.5158 37.8192 31.3559
H 16.8196 38.7264 31.3234
H 17.3182 37.2974 31.3592
Ow 13.5253 44.2212 5.34921
H 13.0376 44.747 5.98311
H 14.0888 44.8502 4.89858
Ow 3.03809 48.6983 20.4515
H 2.89621 48.7641 21.3958
H 2.26441 48.2396 20.124
Ow 2.6675 26.3193 39.9882
H 2.95707 25.6662 39.3511
H 2.01976 26.8434 39.5171
Ow 29.5392 33.511 25.6448
H 30.1063 32.8962 26.1102
H 28.6555 33.2948 25.9425
Ow 39.7257 40.0398 18.596
H 38.8243 40.3237 18.444
H 40.2265 40.4402 17.8852
Ow 13.3134 45.6356 50.7958
H 13.5817 46.4931 51.1256
H 12.3725 45.5961 50.9674
Ow 27.8785 49.2505 24.956
H 28.8324 49.3285 24.9667
H 27.6743 48.9238 24.0797
Ow 31.225 40.5503 29.876
H 31.7055 41.2124 29.379
H 31.7482 40.4169 30.6664
Ow 10.6546 2.19666 51.5739
H 11.2671 2.14699 50.8399
H 11.2101 2.16383 52.3527
Ow 7.89176 36.9733 37.3886
H 7.73598 37.5429 36.6353
H 8.12122 36.1265 37.0058
Ow 52.5127 16.5172 3.85776
H 52.4843 17.4737 3.87718
H 52.992 16.3075 3.05614
Ow 29.8505 16.6894 25.1752
H 29.9515 16.2758 24.3179
H 28.9691 16.4447 25.4572
Ow 40.2545 30.2757 45.0195
H 39.9138 30.8577 44.3402
H 40.7155 29.5888 44.5379
Ow 11.0562 20.0383 36.6818
H 11.7556 19.8365 36.0602
H 10.2882 19.5849 36.3343
Ow 10.9617 18.2575 38.6688
H 10.977 19.0345 38.11
H 11.596 17.6622 38.2696
Ow 33.6703 40.9848 20.7761
H 34.5818 40.9296 21.0632
H 33.2114 41.3912 21.5113
Ow 52.3076 37.2312 30.1649
H 52.8286 36.6937 30.7614
H 51.4007 37.0661 30.4231
Ow 34.1328 24.4622 26.6564
H 34.0607 23.7506 26.0203
H 34.1392 24.0237 27.5073
Ow 35.8943 16.9551 7.91435
H 35.134 16.6882 7.3976
H 35.8398 16.4278 8.71137
Ow 20.6362 35.7601 43.7547
H 19.991 36.3416 44.1569
H 20.8433 36.1744 42.917
Ow 4.10194 40.358 50.9646
H 4.92107 40.5847 50.5243
H 3.93625 39.4501 50.7106
Ow 5.66334 51.6743 51.4006
H 6.20961 51.0833 50.8824
H 5.19632 51.0996 52.007
Ow 40.8947 17.2921 46.1562
H 40.4268 16.5004 45.8906
H 41.1359 17.1336 47.0688
Ow 23.617 0.722909 12.4285
H 23.2862 1.24486 11.6975
H 23.4261 52.2807 12.1828
Ow 21.0574 8.13637 7.81382
H 20.8396 7.46728 7.16489
H 21.6957 8.69815 7.37431
Ow 16.9889 36.2734 42.146
H 17.3498 37.1318 42.3676
H 17.7318 35.6743 42.2199
Ow 28.0612 16.1208 6.95851
H 27.2809 15.7682 7.3865
H 28.604 16.4441 7.67761
Ow 9.61054 24.9678 20.1862
H 9.66083 25.4118 19.3396
H 8.8098 25.3058 20.5872
Ow 26.2499 49.7135 38.9559
H 27.1363 49.7878 38.6023
H 26.361 49.252 39.7871
Ow 38.9075 16.6922 18.7976
H 38.7064 17.625 18.8728
H 38.2073 16.2559 19.283
Ow 5.67987 18.3441 40.0009
H 5.15329 18.8001 39.3443
H 6.56245 18.3266 39.6307
Ow 48.2415 41.3143 52.6983
H 49.1164 41.665 52.5315
H 47.6706 42.0826 52.6962
Ow 38.9621 38.7462 30.2319
H 38.6939 39.4564 30.8149
H 39.139 39.1764 29.3953
Ow 12.9928 8.08412 40.2269
H 12.8471 8.78173 40.8659
H 13.4415 7.39711 40.7197
Ow 43.4322 14.2887 51.6557
H 43.3092 13.6373 50.9652
H 44.37 14.2629 51.8456
Ow 27.1567 36.3193 29.9926
H 26.818 35.4245 30.0229
H 27.0217 36.5965 29.0865
Ow 45.2545 20.739 22.0989
H 44.536 20.3093 21.6347
H 45.5101 21.4633 21.5277
Ow 28.7466 13.2105 34.823
H 27.8055 13.3708 34.8923
H 29.1217 14.0675 34.6204
Ow 40.3683 27.4226 41.8119
H 41.0999 26.87 42.087
H 39.794 26.834 41.322
Ow 17.0699 23.7221 6.32228
H 17.5057 24.5521 6.1291
H 17.3937 23.1195 5.65276
Ow 22.9991 12.0622 22.8934
H 22.7279 12.4673 23.7171
H 23.7458 12.5858 22.6028
Ow 3.84196 46.9561 51.3688
H 4.02468 46.2991 52.0406
H 3.87642 46.4719 50.5439
Ow 49.8089 17.1523 34.8515
H 49.1366 17.4646 35.4571
H 49.4171 16.3861 34.4323
Ow 21.9918 29.4401 27.0749
H 21.3387 30.1396 27.097
H 22.6702 29.7259 27.6868
Ow 23.667 28.5243 12.3612
H 23.9855 27.662 12.6281
H 22.7924 28.3587 12.0092
Ow 32.8036 51.0175 42.7787
H 32.0552 50.934 43.3697
H 32.4138 51.1738 41.9185
Ow 7.8039 37.4771 49.8595
H 7.38376 36.8446 50.4424
H 7.90796 37.0082 49.0316
Ow 42.5156 40.8822 3.98039
H 42.1391 40.1065 4.39601
H 41.9745 41.6078 4.29174
Ow 50.0203 7.47348 40.7555
H 50.1352 7.65522 39.8228
H 50.6552 8.04241 41.1908
Ow 46.1254 41.1554 20.5599
H 47.0143 40.9982 20.8782
H 46.2446 41.496 19.6733
Ow 26.1023 37.8613 46.5271
H 26.1709 36.9819 46.1552
H 25.7695 38.4001 45.8094
Ow 18.4166 7.12693 36.4949
H 18.3222 6.72469 35.6315
H 19.2916 6.86926 36.7852
Ow 39.4511 42.4852 11.0116
H 39.1541 43.3035 11.4095
H 38.7032 42.1838 10.4959
Ow 21.4523 51.1487 34.2554
H 22.1379 50.4882 34.1561
H 21.6131 51.5339 35.1167
Ow 49.5122 10.7966 19.119
H 49.6945 9.86962 18.9651
H 48.7086 10.8001 19.6389
Ow 18.0287 34.2108 8.86492
H 18.4773 33.4223 9.17027
H 18.709 34.884 8.85152
Ow 17.0245 0.654749 53.0115
H 17.9539 52.9391 0.691402
H 16.7289 1.05638 1.36557
Ow 31.4973 7.8159 13.8973
H 31.4918 7.78323 14.854
H 30.8896 8.52209 13.6778
Ow 39.08 33.1438 28.4079
H 38.3544 32.708 27.9608
H 39.8266 33.0313 27.8196
Ow 8.29375 11.4225 30.1603
H 8.8883 11.1967 29.4449
H 8.69623 11.0358 30.938
Ow 29.5822 15.5593 33.944
H 29.2402 15.4701 33.0545
H 29.3946 16.4669 34.1834
Ow 14.2408 28.6171 23.5172
H 13.9734 28.6443 24.436
H 14.5447 27.7195 23.3823
Ow 46.927 14.3064 20.7718
H 46.9726 14.4739 19.8305
H 46.3749 15.0094 21.1142
Ow 21.1122 18.9501 18.2033
H 20.3633 19.3769 18.6194
H 21.0666 19.2247 17.2874
Ow 26.2507 49.867 46.8049
H 26.2637 49.9254 45.8496
H 25.7484 49.0736 46.9901
Ow 43.3775 39.4355 0.847629
H 44.304 39.3219 0.635522
H 43.3569 39.5078 1.80187
Ow 42.8529 49.5629 1.97247
H 42.9031 49.319 2.89674
H 42.6083 50.4882 1.98134
Ow 15.6579 5.32539 1.89241
H 15.5691 6.26227 2.06737
H 14.767 5.03121 1.70265
Ow 27.2074 50.1176 35.0103
H 27.8207 50.4433 34.3515
H 26.4681 50.7243 34.9708
Ow 13.9008 19.0808 7.62547
H 13.8831 19.1986 6.67572
H 14.3718 19.8468 7.95358
Ow 15.1294 30.292 37.5191
H 14.5537 30.7994 38.0913
H 14.7961 29.3965 37.5764
Ow 39.4946 2.77497 8.94214
H 39.4868 3.41587 8.23121
H 40.2164 3.05154 9.50667
Ow 22.7358 14.1114 43.1435
H 22.7585 13.2929 42.6476
H 23.2983 13.9489 43.9008
Ow 40.3231 51.9808 52.0974
H 40.3229 52.2155 53.0254
H 39.5766 51.3898 51.9991
Ow 51.4593 37.5365 43.3396
H 51.306 37.358 44.2674
H 52.4124 37.5544 43.253
Ow 11.0527 3.25888 3.93558
H 11.503 2.83978 3.20218
H 11.3994 4.15093 3.95188
Ow 28.9986 9.89847 6.92642
H 28.0795 9.89332 6.65939
H 29.1844 8.99021 7.16469
Ow 49.8336 22.9366 24.3938
H 50.0049 22.0832 24.792
H 49.5467 23.4879 25.1218
Ow 14.1318 43.1704 21.6369
H 14.049 42.4283 21.0381
H 13.9809 42.7964 22.505
Ow 52.4804 29.0019 15.2178
H 51.8079 28.3448 15.3969
H 52.6989 29.3622 16.0772
Ow 22.1957 22.5955 2.12092
H 21.5289 23.2329 1.86546
H 23.027 23.0187 1.90603
Ow 37.0812 38.5367 2.02861
H 37.1056 39.1953 1.33451
H 37.9705 38.1836 2.0557
Ow 19.5415 1.58521 12.6923
H 18.725 1.10777 12.8388
H 19.858 1.2658 11.8473
Ow 49.433 2.90926 13.7846
H 49.4713 3.29711 12.9103
H 50.3107 3.03951 14.1435
Ow 31.6495 24.339 23.5197
H 31.2715 23.4608 23.4734
H 30.9699 24.8713 23.9333
Ow 6.78316 31.3601 46.158
H 6.63184 31.4624 47.0976
H 6.52856 30.4566 45.9708
Ow 21.3992 3.83272 16.6861
H 20.9478 3.12762 16.222
H 21.4715 3.51891 17.5875
Ow 5.87405 44.8787 30.8523
H 5.43875 45.6185 30.4287
H 6.78996 45.1477 30.9231
Ow 52.9718 11.9892 29.919
H 52.5508 11.5844 29.1606
H 0.745092 11.2532 30.4836
Ow 37.558 10.7593 0.79216
H 37.2605 10.04 1.34918
H 38.3995 10.4624 52.9087
Ow 23.3906 47.7479 27.8672
H 23.4451 48.6641 27.5958
H 22.4785 47.5044 27.7089
Ow 50.7398 27.78 18.9853
H 50.3807 26.9848 19.3788
H 50.7979 27.5804 18.051
Ow 24.6826 3.18865 7.76627
H 24.91 3.83796 7.10074
H 23.745 3.31353 7.91296
Ow 46.9973 23.3182 34.3332
H 47.7871 23.7548 34.6523
H 46.7346 22.7425 35.0514
Ow 34.7506 45.3086 15.7831
H 34.6138 45.764 16.6138
H 34.0131 45.5798 15.2364
Ow 24.7205 41.8704 29.901
H 25.1332 41.4191 29.1646
H 25.3931 41.8833 30.582