created by fftool

3144 atoms
2000 bonds
1000 angles
4 atom types
1 bond types
1 angle types
0.000000 32.566733 xlo xhi
0.000000 32.566733 ylo yhi
0.000000 32.566733 zlo zhi
Atoms

      1       1    1  -1.112800  2.621678e+01  1.539274e+01  1.864588e+01  # Ow water
      2       1    2   0.556400  2.617117e+01  1.468851e+01  1.799918e+01  # Hw water
      3       1    2   0.556400  2.609639e+01  1.495357e+01  1.948782e+01  # Hw water
      4       2    1  -1.112800  2.729468e+01  2.445377e+01  1.217010e+01  # Ow water
      5       2    2   0.556400  2.676079e+01  2.372318e+01  1.248221e+01  # Hw water
      6       2    2   0.556400  2.809081e+01  2.404259e+01  1.183343e+01  # Hw water
      7       3    1  -1.112800  2.354610e+01  2.615259e+01  1.654535e+01  # Ow water
      8       3    2   0.556400  2.437229e+01  2.624179e+01  1.702040e+01  # Hw water
      9       3    2   0.556400  2.287251e+01  2.620518e+01  1.722339e+01  # Hw water
     10       4    1  -1.112800  1.546089e+00  4.265950e+00  1.379197e+01  # Ow water
     11       4    2   0.556400  1.499813e+00  3.340120e+00  1.355338e+01  # Hw water
     12       4    2   0.556400  1.512179e+00  4.731167e+00  1.295611e+01  # Hw water
     13       5    1  -1.112800  2.466647e+01  1.595554e+01  3.077101e+01  # Ow water
     14       5    2   0.556400  2.508950e+01  1.636294e+01  3.001517e+01  # Hw water
     15       5    2   0.556400  2.501194e+01  1.506300e+01  3.078720e+01  # Hw water
     16       6    1  -1.112800  2.111116e+01  2.025625e+01  2.810801e+01  # Ow water
     17       6    2   0.556400  2.053477e+01  1.951331e+01  2.828703e+01  # Hw water
     18       6    2   0.556400  2.167948e+01  1.995384e+01  2.739964e+01  # Hw water
     19       7    1  -1.112800  2.286898e+00  2.678889e+01  1.635221e+01  # Ow water
     20       7    2   0.556400  2.221480e+00  2.584347e+01  1.621753e+01  # Hw water
     21       7    2   0.556400  1.510170e+00  2.714685e+01  1.592235e+01  # Hw water
     22       8    1  -1.112800  9.908321e+00  1.537125e+01  2.787842e+01  # Ow water
     23       8    2   0.556400  9.597325e+00  1.449418e+01  2.765423e+01  # Hw water
     24       8    2   0.556400  1.086253e+01  1.529571e+01  2.787494e+01  # Hw water
     25       9    1  -1.112800  2.533306e+01  1.185353e+01  3.047251e+01  # Ow water
     26       9    2   0.556400  2.500213e+01  1.252702e+01  3.106676e+01  # Hw water
     27       9    2   0.556400  2.567849e+01  1.117271e+01  3.104991e+01  # Hw water
     28      10    1  -1.112800  2.242800e+00  1.686719e+01  4.057297e+00  # Ow water
     29      10    2   0.556400  1.498383e+00  1.734138e+01  3.686866e+00  # Hw water
     30      10    2   0.556400  2.943255e+00  1.751797e+01  4.102862e+00  # Hw water
     31      11    1  -1.112800  2.360077e+00  2.916980e+01  2.690802e+01  # Ow water
     32      11    2   0.556400  1.498970e+00  2.946744e+01  2.661454e+01  # Hw water
     33      11    2   0.556400  2.956564e+00  2.943247e+01  2.620699e+01  # Hw water
     34      12    1  -1.112800  2.223250e+01  2.008913e+01  1.957361e+01  # Ow water
     35      12    2   0.556400  2.174647e+01  2.042212e+01  2.032801e+01  # Hw water
     36      12    2   0.556400  2.315210e+01  2.016411e+01  1.982847e+01  # Hw water
     37      13    1  -1.112800  8.703612e+00  6.090261e+00  1.339697e+01  # Ow water
     38      13    2   0.556400  9.615916e+00  6.378187e+00  1.336490e+01  # Hw water
     39      13    2   0.556400  8.615926e+00  5.487963e+00  1.265821e+01  # Hw water
     40      14    1  -1.112800  3.758184e+00  1.279608e+01  1.542487e+01  # Ow water
     41      14    2   0.556400  3.984926e+00  1.186722e+01  1.537964e+01  # Hw water
     42      14    2   0.556400  3.951359e+00  1.304655e+01  1.632829e+01  # Hw water
     43      15    1  -1.112800  4.177062e+00  8.632351e+00  2.746285e+01  # Ow water
     44      15    2   0.556400  5.114907e+00  8.658847e+00  2.727318e+01  # Hw water
     45      15    2   0.556400  4.125111e+00  8.642688e+00  2.841858e+01  # Hw water
     46      16    1  -1.112800  2.144936e+01  1.144726e+01  5.150982e+00  # Ow water
     47      16    2   0.556400  2.200247e+01  1.068783e+01  5.334200e+00  # Hw water
     48      16    2   0.556400  2.194148e+01  1.219169e+01  5.497205e+00  # Hw water
     49      17    1  -1.112800  1.071273e+01  2.948214e+01  6.592595e+00  # Ow water
     50      17    2   0.556400  1.095797e+01  3.000537e+01  5.829499e+00  # Hw water
     51      17    2   0.556400  1.002216e+01  2.890123e+01  6.273390e+00  # Hw water
     52      18    1  -1.112800  2.836352e+01  3.106673e+01  1.659162e+01  # Ow water
     53      18    2   0.556400  2.824250e+01  3.096480e+01  1.753565e+01  # Hw water
     54      18    2   0.556400  2.794408e+01  3.029499e+01  1.621120e+01  # Hw water
     55      19    1  -1.112800  1.422287e+01  1.565188e+01  4.966406e+00  # Ow water
     56      19    2   0.556400  1.384491e+01  1.630089e+01  4.372977e+00  # Hw water
     57      19    2   0.556400  1.459761e+01  1.616846e+01  5.679803e+00  # Hw water
     58      20    1  -1.112800  1.555392e+01  1.941580e+01  1.672660e+01  # Ow water
     59      20    2   0.556400  1.541234e+01  1.942845e+01  1.767318e+01  # Hw water
     60      20    2   0.556400  1.503901e+01  2.015234e+01  1.639706e+01  # Hw water
     61      21    1  -1.112800  2.739708e+01  1.692873e+01  3.106492e+01  # Ow water
     62      21    2   0.556400  2.732287e+01  1.597442e+01  3.106785e+01  # Hw water
     63      21    2   0.556400  2.833951e+01  1.709617e+01  3.106663e+01  # Hw water
     64      22    1  -1.112800  1.712821e+01  2.758076e+01  2.572740e+01  # Ow water
     65      22    2   0.556400  1.752779e+01  2.703939e+01  2.640819e+01  # Hw water
     66      22    2   0.556400  1.679953e+01  2.834921e+01  2.619397e+01  # Hw water
     67      23    1  -1.112800  6.443774e+00  2.660517e+01  1.840857e+01  # Ow water
     68      23    2   0.556400  6.770919e+00  2.591453e+01  1.783219e+01  # Hw water
     69      23    2   0.556400  6.141152e+00  2.729109e+01  1.781345e+01  # Hw water
     70      24    1  -1.112800  3.104606e+01  4.360112e+00  1.673044e+00  # Ow water
     71      24    2   0.556400  3.106670e+01  4.518994e+00  2.616739e+00  # Hw water
     72      24    2   0.556400  3.015445e+01  4.057916e+00  1.500000e+00  # Hw water
     73      25    1  -1.112800  1.579522e+01  1.495328e+01  2.503306e+01  # Ow water
     74      25    2   0.556400  1.644637e+01  1.519855e+01  2.437574e+01  # Hw water
     75      25    2   0.556400  1.495284e+01  1.510041e+01  2.460296e+01  # Hw water
     76      26    1  -1.112800  6.767007e+00  1.380423e+01  2.587537e+01  # Ow water
     77      26    2   0.556400  7.501905e+00  1.378716e+01  2.648845e+01  # Hw water
     78      26    2   0.556400  5.990083e+00  1.384392e+01  2.643308e+01  # Hw water
     79      27    1  -1.112800  1.199284e+01  1.122355e+01  1.471194e+01  # Ow water
     80      27    2   0.556400  1.173017e+01  1.204445e+01  1.512831e+01  # Hw water
     81      27    2   0.556400  1.253770e+01  1.078620e+01  1.536622e+01  # Hw water
     82      28    1  -1.112800  1.513936e+00  1.503209e+01  1.101193e+01  # Ow water
     83      28    2   0.556400  1.499907e+00  1.557963e+01  1.179693e+01  # Hw water
     84      28    2   0.556400  1.499710e+00  1.413479e+01  1.134491e+01  # Hw water
     85      29    1  -1.112800  2.634283e+01  1.900340e+00  2.462390e+01  # Ow water
     86      29    2   0.556400  2.619201e+01  1.499636e+00  2.548001e+01  # Hw water
     87      29    2   0.556400  2.608827e+01  2.815833e+00  2.473923e+01  # Hw water
     88      30    1  -1.112800  1.611562e+01  2.046978e+00  1.961418e+01  # Ow water
     89      30    2   0.556400  1.585454e+01  1.499932e+00  1.887336e+01  # Hw water
     90      30    2   0.556400  1.595431e+01  1.501430e+00  2.038397e+01  # Hw water
     91      31    1  -1.112800  1.387233e+01  1.501448e+01  1.331110e+01  # Ow water
     92      31    2   0.556400  1.351603e+01  1.435810e+01  1.390980e+01  # Hw water
     93      31    2   0.556400  1.477009e+01  1.472644e+01  1.314591e+01  # Hw water
     94      32    1  -1.112800  1.420086e+01  8.728938e+00  9.323457e+00  # Ow water
     95      32    2   0.556400  1.515012e+01  8.668308e+00  9.430497e+00  # Hw water
     96      32    2   0.556400  1.400394e+01  9.657148e+00  9.449460e+00  # Hw water
     97      33    1  -1.112800  1.979747e+01  2.163150e+01  9.173288e+00  # Ow water
     98      33    2   0.556400  1.916530e+01  2.225949e+01  8.823688e+00  # Hw water
     99      33    2   0.556400  1.987318e+01  2.185794e+01  1.010023e+01  # Hw water
    100      34    1  -1.112800  9.943815e+00  9.366835e+00  5.771760e+00  # Ow water
    101      34    2   0.556400  9.668782e+00  8.540909e+00  6.169795e+00  # Hw water
    102      34    2   0.556400  9.249970e+00  9.574391e+00  5.145878e+00  # Hw water
    103      35    1  -1.112800  3.046261e+01  1.917019e+01  1.490876e+01  # Ow water
    104      35    2   0.556400  3.106671e+01  1.981693e+01  1.454403e+01  # Hw water
    105      35    2   0.556400  3.082806e+01  1.895798e+01  1.576761e+01  # Hw water
    106      36    1  -1.112800  2.389832e+01  2.606265e+01  6.793499e+00  # Ow water
    107      36    2   0.556400  2.318340e+01  2.664507e+01  6.536805e+00  # Hw water
    108      36    2   0.556400  2.397035e+01  2.543841e+01  6.071440e+00  # Hw water
    109      37    1  -1.112800  1.257930e+01  2.503893e+01  2.302218e+01  # Ow water
    110      37    2   0.556400  1.316698e+01  2.560536e+01  2.352221e+01  # Hw water
    111      37    2   0.556400  1.214851e+01  2.449688e+01  2.368311e+01  # Hw water
    112      38    1  -1.112800  7.610655e+00  7.171114e+00  2.669738e+01  # Ow water
    113      38    2   0.556400  8.389274e+00  7.692574e+00  2.650229e+01  # Hw water
    114      38    2   0.556400  7.310877e+00  7.495857e+00  2.754644e+01  # Hw water
    115      39    1  -1.112800  2.107187e+01  3.106690e+01  3.000220e+01  # Ow water
    116      39    2   0.556400  2.088142e+01  3.106492e+01  2.906415e+01  # Hw water
    117      39    2   0.556400  2.202495e+01  3.099463e+01  3.005374e+01  # Hw water
    118      40    1  -1.112800  1.019473e+01  4.367925e+00  2.364308e+01  # Ow water
    119      40    2   0.556400  1.084226e+01  3.665827e+00  2.357991e+01  # Hw water
    120      40    2   0.556400  1.039588e+01  4.946785e+00  2.290776e+01  # Hw water
    121      41    1  -1.112800  2.796146e+01  6.072625e+00  1.711274e+01  # Ow water
    122      41    2   0.556400  2.869966e+01  6.132365e+00  1.771914e+01  # Hw water
    123      41    2   0.556400  2.764190e+01  6.971499e+00  1.703437e+01  # Hw water
    124      42    1  -1.112800  1.029643e+01  1.979855e+00  2.176998e+01  # Ow water
    125      42    2   0.556400  9.476963e+00  1.556392e+00  2.202568e+01  # Hw water
    126      42    2   0.556400  1.097355e+01  1.499947e+00  2.224687e+01  # Hw water
    127      43    1  -1.112800  2.624155e+01  1.700973e+00  2.798697e+01  # Ow water
    128      43    2   0.556400  2.543143e+01  1.513312e+00  2.846101e+01  # Hw water
    129      43    2   0.556400  2.689051e+01  1.856800e+00  2.867312e+01  # Hw water
    130      44    1  -1.112800  1.523243e+00  1.127697e+01  9.401608e+00  # Ow water
    131      44    2   0.556400  1.499953e+00  1.053411e+01  1.000480e+01  # Hw water
    132      44    2   0.556400  1.499451e+00  1.204758e+01  9.968904e+00  # Hw water
    133      45    1  -1.112800  6.702586e+00  1.245840e+01  2.893504e+01  # Ow water
    134      45    2   0.556400  6.016788e+00  1.226108e+01  2.957299e+01  # Hw water
    135      45    2   0.556400  6.644702e+00  1.340503e+01  2.880552e+01  # Hw water
    136      46    1  -1.112800  1.044685e+01  2.154149e+01  2.344794e+01  # Ow water
    137      46    2   0.556400  1.077463e+01  2.231190e+01  2.391190e+01  # Hw water
    138      46    2   0.556400  1.113040e+01  2.133671e+01  2.280993e+01  # Hw water
    139      47    1  -1.112800  5.392665e+00  1.822287e+01  1.630305e+01  # Ow water
    140      47    2   0.556400  5.726308e+00  1.747172e+01  1.581245e+01  # Hw water
    141      47    2   0.556400  5.717974e+00  1.809153e+01  1.719364e+01  # Hw water
    142      48    1  -1.112800  1.445985e+01  6.320469e+00  9.941515e+00  # Ow water
    143      48    2   0.556400  1.386495e+01  6.157600e+00  1.067349e+01  # Hw water
    144      48    2   0.556400  1.448911e+01  5.489880e+00  9.466651e+00  # Hw water
    145      49    1  -1.112800  1.387871e+01  2.447303e+01  6.738022e+00  # Ow water
    146      49    2   0.556400  1.337805e+01  2.526831e+01  6.919948e+00  # Hw water
    147      49    2   0.556400  1.322231e+01  2.377681e+01  6.712387e+00  # Hw water
    148      50    1  -1.112800  1.100376e+01  2.111158e+00  2.653618e+01  # Ow water
    149      50    2   0.556400  1.107710e+01  1.500394e+00  2.580282e+01  # Hw water
    150      50    2   0.556400  1.107647e+01  2.977329e+00  2.613532e+01  # Hw water
    151      51    1  -1.112800  1.577531e+01  2.681445e+01  2.093329e+01  # Ow water
    152      51    2   0.556400  1.503150e+01  2.668930e+01  2.152262e+01  # Hw water
    153      51    2   0.556400  1.590767e+01  2.776221e+01  2.091181e+01  # Hw water
    154      52    1  -1.112800  3.082805e+01  1.565546e+00  1.506583e+00  # Ow water
    155      52    2   0.556400  2.987309e+01  1.500459e+00  1.500000e+00  # Hw water
    156      52    2   0.556400  3.106670e+01  1.500000e+00  2.431235e+00  # Hw water
    157      53    1  -1.112800  3.100028e+01  2.339199e+01  1.805603e+00  # Ow water
    158      53    2   0.556400  3.012920e+01  2.364500e+01  1.499938e+00  # Hw water
    159      53    2   0.556400  3.106690e+01  2.377181e+01  2.681688e+00  # Hw water
    160      54    1  -1.112800  1.042486e+01  2.223703e+01  1.030506e+01  # Ow water
    161      54    2   0.556400  1.062223e+01  2.130256e+01  1.036861e+01  # Hw water
    162      54    2   0.556400  9.674123e+00  2.236375e+01  1.088521e+01  # Hw water
    163      55    1  -1.112800  2.382806e+01  1.169628e+01  2.681613e+01  # Ow water
    164      55    2   0.556400  2.446982e+01  1.110529e+01  2.642228e+01  # Hw water
    165      55    2   0.556400  2.400742e+01  1.165379e+01  2.775541e+01  # Hw water
    166      56    1  -1.112800  2.896151e+01  7.958477e+00  1.214452e+01  # Ow water
    167      56    2   0.556400  2.868618e+01  7.943966e+00  1.306114e+01  # Hw water
    168      56    2   0.556400  2.896335e+01  8.886284e+00  1.190914e+01  # Hw water
    169      57    1  -1.112800  2.076060e+01  2.615965e+01  2.250283e+01  # Ow water
    170      57    2   0.556400  2.026938e+01  2.616209e+01  2.168128e+01  # Hw water
    171      57    2   0.556400  2.166860e+01  2.631026e+01  2.223998e+01  # Hw water
    172      58    1  -1.112800  1.009274e+01  2.964649e+01  2.525776e+01  # Ow water
    173      58    2   0.556400  9.370189e+00  2.910203e+01  2.557033e+01  # Hw water
    174      58    2   0.556400  1.047050e+01  3.002331e+01  2.605245e+01  # Hw water
    175      59    1  -1.112800  2.924363e+01  3.076827e+01  2.825684e+01  # Ow water
    176      59    2   0.556400  2.838155e+01  3.106722e+01  2.796757e+01  # Hw water
    177      59    2   0.556400  2.905819e+01  3.004744e+01  2.885870e+01  # Hw water
    178      60    1  -1.112800  1.946867e+01  2.830848e+01  2.001233e+00  # Ow water
    179      60    2   0.556400  2.020913e+01  2.865821e+01  1.505622e+00  # Hw water
    180      60    2   0.556400  1.869760e+01  2.857381e+01  1.499954e+00  # Hw water
    181      61    1  -1.112800  1.441346e+01  1.819693e+01  1.206794e+01  # Ow water
    182      61    2   0.556400  1.463297e+01  1.803138e+01  1.298481e+01  # Hw water
    183      61    2   0.556400  1.467528e+01  1.739795e+01  1.161045e+01  # Hw water
    184      62    1  -1.112800  2.075425e+01  8.244715e+00  2.107686e+01  # Ow water
    185      62    2   0.556400  1.991375e+01  8.011078e+00  2.147082e+01  # Hw water
    186      62    2   0.556400  2.127936e+01  8.571050e+00  2.180761e+01  # Hw water
    187      63    1  -1.112800  2.763154e+01  2.692122e+01  1.671408e+01  # Ow water
    188      63    2   0.556400  2.754324e+01  2.787401e+01  1.668883e+01  # Hw water
    189      63    2   0.556400  2.851184e+01  2.675280e+01  1.637803e+01  # Hw water
    190      64    1  -1.112800  1.515647e+01  2.026272e+00  9.192156e+00  # Ow water
    191      64    2   0.556400  1.453952e+01  1.520293e+00  9.720921e+00  # Hw water
    192      64    2   0.556400  1.471048e+01  2.858219e+00  9.033447e+00  # Hw water
    193      65    1  -1.112800  2.813709e+01  2.351279e+01  2.077412e+01  # Ow water
    194      65    2   0.556400  2.769937e+01  2.380186e+01  1.997345e+01  # Hw water
    195      65    2   0.556400  2.827944e+01  2.431689e+01  2.127351e+01  # Hw water
    196      66    1  -1.112800  2.892007e+01  5.509582e+00  1.004617e+01  # Ow water
    197      66    2   0.556400  2.914923e+01  4.580923e+00  1.008236e+01  # Hw water
    198      66    2   0.556400  2.860946e+01  5.645414e+00  9.151013e+00  # Hw water
    199      67    1  -1.112800  9.664352e+00  1.128017e+01  1.010614e+01  # Ow water
    200      67    2   0.556400  9.198143e+00  1.117332e+01  1.093527e+01  # Hw water
    201      67    2   0.556400  8.975850e+00  1.127431e+01  9.441193e+00  # Hw water
    202      68    1  -1.112800  3.018746e+01  2.845109e+01  3.731096e+00  # Ow water
    203      68    2   0.556400  3.106612e+01  2.839383e+01  3.355711e+00  # Hw water
    204      68    2   0.556400  2.963056e+01  2.871615e+01  2.999089e+00  # Hw water
    205      69    1  -1.112800  2.323644e+01  2.802814e+01  3.323595e+00  # Ow water
    206      69    2   0.556400  2.261249e+01  2.867845e+01  3.001093e+00  # Hw water
    207      69    2   0.556400  2.291344e+01  2.779688e+01  4.194468e+00  # Hw water
    208      70    1  -1.112800  3.886873e+00  2.064018e+01  9.424889e+00  # Ow water
    209      70    2   0.556400  4.579809e+00  2.128841e+01  9.550886e+00  # Hw water
    210      70    2   0.556400  3.983805e+00  2.003869e+01  1.016315e+01  # Hw water
    211      71    1  -1.112800  3.077607e+01  2.155477e+01  2.509074e+01  # Ow water
    212      71    2   0.556400  3.106702e+01  2.093679e+01  2.576132e+01  # Hw water
    213      71    2   0.556400  3.103783e+01  2.115156e+01  2.426301e+01  # Hw water
    214      72    1  -1.112800  1.519668e+00  1.989871e+01  2.097392e+00  # Ow water
    215      72    2   0.556400  1.499981e+00  2.065140e+01  1.506375e+00  # Hw water
    216      72    2   0.556400  1.545851e+00  1.913823e+01  1.516694e+00  # Hw water
    217      73    1  -1.112800  1.000867e+01  1.139900e+01  1.922501e+01  # Ow water
    218      73    2   0.556400  9.124575e+00  1.164533e+01  1.949689e+01  # Hw water
    219      73    2   0.556400  1.053221e+01  1.146390e+01  2.002371e+01  # Hw water
    220      74    1  -1.112800  1.379026e+01  1.638866e+01  1.748107e+01  # Ow water
    221      74    2   0.556400  1.348333e+01  1.557800e+01  1.788710e+01  # Hw water
    222      74    2   0.556400  1.401891e+01  1.695472e+01  1.821831e+01  # Hw water
    223      75    1  -1.112800  2.065226e+01  2.588785e+01  2.746933e+01  # Ow water
    224      75    2   0.556400  1.970262e+01  2.596720e+01  2.755943e+01  # Hw water
    225      75    2   0.556400  2.089482e+01  2.519644e+01  2.808525e+01  # Hw water
    226      76    1  -1.112800  1.287185e+01  1.840829e+01  1.514087e+01  # Ow water
    227      76    2   0.556400  1.358172e+01  1.822478e+01  1.575620e+01  # Hw water
    228      76    2   0.556400  1.212764e+01  1.790903e+01  1.547720e+01  # Hw water
    229      77    1  -1.112800  9.305780e+00  6.169606e+00  1.652305e+01  # Ow water
    230      77    2   0.556400  9.695488e+00  5.414328e+00  1.608270e+01  # Hw water
    231      77    2   0.556400  8.910483e+00  6.681294e+00  1.581726e+01  # Hw water
    232      78    1  -1.112800  2.687360e+01  2.466599e+01  3.048130e+01  # Ow water
    233      78    2   0.556400  2.718436e+01  2.535579e+01  3.106767e+01  # Hw water
    234      78    2   0.556400  2.656272e+01  2.397540e+01  3.106668e+01  # Hw water
    235      79    1  -1.112800  1.945759e+01  2.491515e+01  3.372040e+00  # Ow water
    236      79    2   0.556400  1.881800e+01  2.451287e+01  3.959682e+00  # Hw water
    237      79    2   0.556400  1.986083e+01  2.417718e+01  2.914834e+00  # Hw water
    238      80    1  -1.112800  1.433365e+01  9.552116e+00  2.736876e+01  # Ow water
    239      80    2   0.556400  1.462502e+01  8.987798e+00  2.665261e+01  # Hw water
    240      80    2   0.556400  1.424885e+01  1.041903e+01  2.697191e+01  # Hw water
    241      81    1  -1.112800  1.535800e+01  2.748788e+01  1.710065e+01  # Ow water
    242      81    2   0.556400  1.595849e+01  2.682834e+01  1.744798e+01  # Hw water
    243      81    2   0.556400  1.520884e+01  2.808601e+01  1.783292e+01  # Hw water
    244      82    1  -1.112800  2.015751e+01  2.420938e+01  1.090025e+01  # Ow water
    245      82    2   0.556400  2.106942e+01  2.394708e+01  1.077439e+01  # Hw water
    246      82    2   0.556400  1.982556e+01  2.435613e+01  1.001453e+01  # Hw water
    247      83    1  -1.112800  2.778763e+01  1.790312e+01  1.021566e+01  # Ow water
    248      83    2   0.556400  2.730357e+01  1.839173e+01  1.088138e+01  # Hw water
    249      83    2   0.556400  2.859534e+01  1.763568e+01  1.065420e+01  # Hw water
    250      84    1  -1.112800  5.959219e+00  4.247854e+00  3.514286e+00  # Ow water
    251      84    2   0.556400  6.223560e+00  5.013933e+00  4.023673e+00  # Hw water
    252      84    2   0.556400  5.968483e+00  3.526487e+00  4.143391e+00  # Hw water
    253      85    1  -1.112800  2.053796e+01  1.511396e+01  2.844184e+01  # Ow water
    254      85    2   0.556400  2.037908e+01  1.604408e+01  2.860263e+01  # Hw water
    255      85    2   0.556400  2.088564e+01  1.508042e+01  2.755065e+01  # Hw water
    256      86    1  -1.112800  2.036456e+01  2.782363e+01  5.226713e+00  # Ow water
    257      86    2   0.556400  2.042886e+01  2.690307e+01  4.972423e+00  # Hw water
    258      86    2   0.556400  1.993709e+01  2.824870e+01  4.483200e+00  # Hw water
    259      87    1  -1.112800  2.058819e+00  2.911821e+00  2.152308e+01  # Ow water
    260      87    2   0.556400  1.499949e+00  2.138981e+00  2.144176e+01  # Hw water
    261      87    2   0.556400  1.499690e+00  3.569945e+00  2.193596e+01  # Hw water
    262      88    1  -1.112800  1.825612e+01  8.811853e+00  1.631278e+01  # Ow water
    263      88    2   0.556400  1.736749e+01  8.889572e+00  1.596561e+01  # Hw water
    264      88    2   0.556400  1.831158e+01  9.491405e+00  1.698462e+01  # Hw water
    265      89    1  -1.112800  3.106680e+01  2.449929e+01  1.534142e+01  # Ow water
    266      89    2   0.556400  3.081142e+01  2.541974e+01  1.540287e+01  # Hw water
    267      89    2   0.556400  3.070679e+01  2.409707e+01  1.613189e+01  # Hw water
    268      90    1  -1.112800  2.297804e+00  1.539777e+00  3.106711e+01  # Ow water
    269      90    2   0.556400  2.594471e+00  1.499893e+00  3.015792e+01  # Hw water
    270      90    2   0.556400  1.506931e+00  2.078207e+00  3.103809e+01  # Hw water
    271      91    1  -1.112800  1.755746e+01  1.581963e+01  1.032261e+01  # Ow water
    272      91    2   0.556400  1.665549e+01  1.610807e+01  1.018303e+01  # Hw water
    273      91    2   0.556400  1.779422e+01  1.537083e+01  9.510976e+00  # Hw water
    274      92    1  -1.112800  3.089198e+01  1.346564e+01  1.262683e+01  # Ow water
    275      92    2   0.556400  3.004445e+01  1.378468e+01  1.293686e+01  # Hw water
    276      92    2   0.556400  3.106537e+01  1.397532e+01  1.183538e+01  # Hw water
    277      93    1  -1.112800  7.112166e+00  1.045973e+01  6.937474e+00  # Ow water
    278      93    2   0.556400  7.092524e+00  1.086143e+01  6.068865e+00  # Hw water
    279      93    2   0.556400  7.353766e+00  9.547921e+00  6.774800e+00  # Hw water
    280      94    1  -1.112800  2.667899e+01  1.713351e+01  4.590438e+00  # Ow water
    281      94    2   0.556400  2.754140e+01  1.684073e+01  4.295906e+00  # Hw water
    282      94    2   0.556400  2.672545e+01  1.709401e+01  5.545691e+00  # Hw water
    283      95    1  -1.112800  1.514553e+01  1.851062e+01  2.893489e+01  # Ow water
    284      95    2   0.556400  1.445940e+01  1.909682e+01  2.861578e+01  # Hw water
    285      95    2   0.556400  1.470451e+01  1.767021e+01  2.905917e+01  # Hw water
    286      96    1  -1.112800  2.012917e+00  3.870275e+00  2.521173e+00  # Ow water
    287      96    2   0.556400  1.497866e+00  3.630983e+00  3.291686e+00  # Hw water
    288      96    2   0.556400  1.495426e+00  4.549041e+00  2.087918e+00  # Hw water
    289      97    1  -1.112800  5.913468e+00  1.357437e+01  5.415737e+00  # Ow water
    290      97    2   0.556400  6.388232e+00  1.353752e+01  6.246080e+00  # Hw water
    291      97    2   0.556400  5.124134e+00  1.407871e+01  5.612780e+00  # Hw water
    292      98    1  -1.112800  1.779195e+01  1.584058e+00  1.572155e+01  # Ow water
    293      98    2   0.556400  1.716509e+01  1.500000e+00  1.644002e+01  # Hw water
    294      98    2   0.556400  1.769266e+01  2.487364e+00  1.542087e+01  # Hw water
    295      99    1  -1.112800  1.454172e+01  4.120154e+00  4.282337e+00  # Ow water
    296      99    2   0.556400  1.396399e+01  3.553890e+00  3.770680e+00  # Hw water
    297      99    2   0.556400  1.414091e+01  4.149812e+00  5.151068e+00  # Hw water
    298     100    1  -1.112800  1.499667e+00  9.665318e+00  1.571941e+01  # Ow water
    299     100    2   0.556400  2.413696e+00  9.942786e+00  1.565783e+01  # Hw water
    300     100    2   0.556400  1.538554e+00  8.799468e+00  1.612563e+01  # Hw water
    301     101    1  -1.112800  6.656412e+00  2.798030e+01  9.213515e+00  # Ow water
    302     101    2   0.556400  6.665261e+00  2.873957e+01  8.630723e+00  # Hw water
    303     101    2   0.556400  6.645415e+00  2.722582e+01  8.624558e+00  # Hw water
    304     102    1  -1.112800  2.086251e+01  3.090256e+01  1.387903e+01  # Ow water
    305     102    2   0.556400  2.176690e+01  3.106661e+01  1.414622e+01  # Hw water
    306     102    2   0.556400  2.067728e+01  3.001652e+01  1.419025e+01  # Hw water
    307     103    1  -1.112800  3.766471e+00  1.311576e+01  2.554321e+01  # Ow water
    308     103    2   0.556400  3.954393e+00  1.386821e+01  2.498219e+01  # Hw water
    309     103    2   0.556400  3.514453e+00  1.349961e+01  2.638308e+01  # Hw water
    310     104    1  -1.112800  1.440844e+01  7.680531e+00  3.006835e+01  # Ow water
    311     104    2   0.556400  1.524633e+01  7.223308e+00  2.999685e+01  # Hw water
    312     104    2   0.556400  1.417163e+01  7.604441e+00  3.099266e+01  # Hw water
    313     105    1  -1.112800  2.099886e+01  2.065228e+01  1.606413e+01  # Ow water
    314     105    2   0.556400  2.076072e+01  2.130998e+01  1.541072e+01  # Hw water
    315     105    2   0.556400  2.096474e+01  2.111978e+01  1.689870e+01  # Hw water
    316     106    1  -1.112800  3.106670e+01  5.635785e+00  1.143463e+01  # Ow water
    317     106    2   0.556400  3.098613e+01  6.267517e+00  1.214923e+01  # Hw water
    318     106    2   0.556400  3.100952e+01  4.781271e+00  1.186215e+01  # Hw water
    319     107    1  -1.112800  2.338482e+01  6.090057e+00  2.091954e+00  # Ow water
    320     107    2   0.556400  2.403805e+01  5.717087e+00  1.500000e+00  # Hw water
    321     107    2   0.556400  2.272558e+01  6.471517e+00  1.512193e+00  # Hw water
    322     108    1  -1.112800  1.487995e+01  3.103351e+01  2.236491e+01  # Ow water
    323     108    2   0.556400  1.471564e+01  3.106670e+01  2.142251e+01  # Hw water
    324     108    2   0.556400  1.583333e+01  3.106674e+01  2.244361e+01  # Hw water
    325     109    1  -1.112800  1.559429e+01  1.650448e+01  1.575422e+01  # Ow water
    326     109    2   0.556400  1.501827e+01  1.584167e+01  1.537328e+01  # Hw water
    327     109    2   0.556400  1.572272e+01  1.714273e+01  1.505252e+01  # Hw water
    328     110    1  -1.112800  1.638577e+01  2.875969e+01  7.987942e+00  # Ow water
    329     110    2   0.556400  1.651765e+01  2.830345e+01  8.819014e+00  # Hw water
    330     110    2   0.556400  1.548145e+01  2.907111e+01  8.026003e+00  # Hw water
    331     111    1  -1.112800  1.711623e+00  3.106084e+01  4.979577e+00  # Ow water
    332     111    2   0.556400  2.496977e+00  3.051732e+01  5.043116e+00  # Hw water
    333     111    2   0.556400  1.499615e+00  3.106803e+01  4.046181e+00  # Hw water
    334     112    1  -1.112800  8.464079e+00  1.579649e+01  6.239929e+00  # Ow water
    335     112    2   0.556400  8.679855e+00  1.663631e+01  5.834495e+00  # Hw water
    336     112    2   0.556400  8.011975e+00  1.530727e+01  5.552544e+00  # Hw water
    337     113    1  -1.112800  2.239032e+01  7.223282e+00  7.501059e+00  # Ow water
    338     113    2   0.556400  2.299164e+01  7.661351e+00  6.898778e+00  # Hw water
    339     113    2   0.556400  2.238099e+01  6.311472e+00  7.209950e+00  # Hw water
    340     114    1  -1.112800  2.826500e+01  1.329242e+01  3.019493e+01  # Ow water
    341     114    2   0.556400  2.872953e+01  1.393544e+01  3.073063e+01  # Hw water
    342     114    2   0.556400  2.753549e+01  1.300485e+01  3.074387e+01  # Hw water
    343     115    1  -1.112800  3.931264e+00  3.034722e+01  3.106838e+01  # Ow water
    344     115    2   0.556400  3.262580e+00  3.060060e+01  3.043208e+01  # Hw water
    345     115    2   0.556400  4.680136e+00  3.007937e+01  3.053577e+01  # Hw water
    346     116    1  -1.112800  2.074250e+00  1.887812e+01  2.396898e+01  # Ow water