3072
Atoms. Timestep: 0
Ow 19.182 22.5951 21.0607
H 18.9145 21.8592 20.5101
H 18.9451 23.3722 20.5544
Ow 17.0493 25.7477 15.9975
H 16.2352 25.7707 16.5005
H 17.3943 24.8662 16.1395
Ow 0.748176 3.89836 9.99919
H 1.15869 3.09188 10.3111
H 31.3029 3.77155 10.1644
Ow 25.205 18.7653 10.8241
H 25.1079 19.4058 11.5288
H 25.4643 17.9578 11.2677
Ow 20.0028 28.7782 27.5423
H 20.4406 28.2019 26.9158
H 19.4068 29.3039 27.0088
Ow 13.7045 3.69263 20.765
H 13.9833 3.93599 21.6478
H 14.1357 4.32798 20.1934
Ow 25.5697 25.0591 4.40229
H 25.5826 25.0721 3.44527
H 26.3677 25.5212 4.65935
Ow 21.899 11.6416 9.50766
H 21.1775 11.3553 8.94763
H 22.3244 12.3413 9.01201
Ow 1.56169 27.4299 2.36855
H 1.23311 26.7273 2.92937
H 2.44308 27.607 2.69722
Ow 10.4092 18.2672 16.3687
H 10.2815 18.5034 17.2875
H 9.52543 18.2443 16.0017
Ow 25.79 14.6604 7.2518
H 26.6488 14.2417 7.30933
H 25.4012 14.3019 6.45398
Ow 21.674 26.6762 5.71955
H 21.1019 26.1065 5.2054
H 21.0763 27.2724 6.17074
Ow 17.8365 23.1076 17.6424
H 17.5056 22.5087 18.3117
H 18.7751 22.925 17.5997
Ow 29.3969 13.4425 19.1642
H 29.8263 13.363 18.3125
H 29.4622 14.3728 19.38
Ow 28.6531 24.8792 29.9104
H 28.6043 25.5935 29.2751
H 29.1751 24.2056 29.4746
Ow 2.24063 15.7061 18.1204
H 2.79438 15.8356 17.3505
H 1.76576 14.8946 17.9407
Ow 13.3576 15.3897 17.6031
H 13.0715 14.5713 17.1974
H 13.261 16.0462 16.9133
Ow 0.872751 20.8113 7.44312
H 1.60029 20.1947 7.52467
H 0.667996 21.0614 8.34409
Ow 31.5366 2.38186 30.9325
H 30.8382 1.74578 31.0867
H 0.606031 1.96995 30.2732
Ow 26.1614 3.92459 13.9574
H 25.9052 4.84486 13.8968
H 26.9047 3.92169 14.5606
Ow 5.9841 7.35209 9.83292
H 6.53488 6.70683 10.2762
H 6.51824 8.14597 9.80664
Ow 15.6406 2.73567 8.19404
H 15.7095 3.53392 7.67033
H 16.5388 2.54981 8.46761
Ow 18.1411 25.1869 19.4405
H 17.9911 24.6073 18.6935
H 18.7618 25.8397 19.1169
Ow 4.25893 11.4154 7.75455
H 4.91446 12.0905 7.57915
H 4.35962 11.2194 8.68603
Ow 3.77461 0.998275 13.0556
H 4.21823 31.6758 12.8088
H 3.51989 0.864372 13.9685
Ow 29.4494 15.0099 4.57123
H 28.9576 14.5528 5.25346
H 28.7778 15.3768 3.9963
Ow 23.4816 0.641975 17.3142
H 22.9517 31.3411 17.2068
H 23.0377 1.13702 18.0028
Ow 2.83729 8.61703 10.4758
H 3.38392 9.37808 10.6713
H 3.27668 7.88738 10.9126
Ow 22.4726 9.25349 6.68276
H 22.0833 8.6044 7.2687
H 22.4346 8.84817 5.81645
Ow 24.7017 20.1504 30.7452
H 24.3199 20.186 29.8681
H 23.9965 20.4369 31.3257
Ow 12.1555 28.9907 25.2458
H 12.8264 28.3763 25.5433
H 11.3264 28.5642 25.4624
Ow 6.15242 20.8452 27.1137
H 5.27931 20.4887 27.2776
H 6.74257 20.1022 27.2402
Ow 26.2483 26.4947 7.66777
H 26.489 27.2336 7.10899
H 26.3765 25.7239 7.11487
Ow 13.8998 13.3992 10.0332
H 13.766 14.1749 10.5779
H 13.1457 12.8407 10.2216
Ow 25.3326 2.557 19.2121
H 25.7751 2.02304 18.5524
H 25.3939 2.04312 20.0174
Ow 26.3306 17.454 0.678015
H 26.7568 17.0986 1.45791
H 25.396 17.4304 0.883456
Ow 3.69942 14.7725 26.1828
H 4.36628 14.5706 26.8392
H 3.85727 15.6885 25.9543
Ow 5.77052 31.3783 22.6259
H 4.84377 31.4544 22.3988
H 5.77467 31.2344 23.5722
Ow 6.24241 13.5468 7.29481
H 6.92836 13.4729 7.95831
H 5.87335 14.42 7.42744
Ow 20.4188 25.2557 3.53846
H 19.7908 24.8762 4.15314
H 21.1872 24.688 3.59935
Ow 27.6713 23.6113 26.8571
H 27.3028 24.4796 26.6944
H 26.9984 23.1561 27.3633
Ow 22.0013 1.32606 14.4612
H 21.7967 1.56028 13.5559
H 22.5882 2.01997 14.7618
Ow 25.4975 25.7211 17.5963
H 25.4917 25.3504 16.7138
H 25.1195 25.0355 18.147
Ow 12.3514 13.1036 20.1225
H 12.0653 12.5367 19.4063
H 12.7701 13.8465 19.6879
Ow 28.747 17.1015 10.7759
H 28.2091 17.2027 9.99067
H 28.2195 16.5561 11.3595
Ow 17.0776 16.0108 25.221
H 16.9577 15.2117 24.7079
H 16.9589 15.7329 26.1293
Ow 5.11967 19.0238 14.4443
H 4.26044 19.3966 14.247
H 5.64476 19.2053 13.6648
Ow 2.59311 6.29032 14.1064
H 1.85756 6.4052 13.5048
H 2.77903 5.35168 14.0817
Ow 1.07984 4.47689 7.29708
H 0.931041 4.38149 8.23782
H 0.779861 3.64913 6.9215
Ow 27.8603 3.24428 5.21101
H 27.1786 2.91934 4.62285
H 27.8702 2.61894 5.93564
Ow 14.6977 13.7652 13.6779
H 15.1992 12.9586 13.5593
H 14.8484 14.262 12.8737
Ow 29.2401 5.05087 23.3281
H 30.1206 4.82113 23.0312
H 28.687 4.92821 22.5565
Ow 18.0919 20.0652 6.33228
H 17.8245 20.0368 5.41362
H 18.6344 20.8509 6.40014
Ow 19.504 22.6554 0.523508
H 18.7006 22.6289 31.4929
H 20.1565 22.2146 31.4683
Ow 25.6989 14.1154 3.38799
H 26.2741 14.8272 3.10761
H 25.1729 14.4949 4.09196
Ow 14.765 21.963 28.6716
H 15.0173 22.8864 28.6743
H 15.4959 21.5132 29.0955
Ow 27.2798 7.19314 26.1344
H 26.7806 7.88111 26.5746
H 26.6248 6.53777 25.8941
Ow 12.3129 24.4512 24.4816
H 12.5082 23.7479 25.1009
H 12.4074 25.2546 24.9933
Ow 27.6216 10.9702 4.66912
H 27.5947 10.015 4.6133
H 26.8885 11.263 4.12777
Ow 13.5506 7.70285 29.238
H 12.9632 7.87622 28.5023
H 13.2995 6.83187 29.5455
Ow 18.2878 1.28434 19.8392
H 17.9197 0.539876 20.3152
H 19.226 1.10024 19.7941
Ow 19.3002 17.4008 6.86167
H 18.4957 16.9485 7.11568
H 19.0005 18.2171 6.46159
Ow 14.7329 25.9117 17.3674
H 14.98 26.0629 18.2797
H 14.5706 26.7867 17.0146
Ow 17.0903 23.3855 22.4632
H 17.8739 23.1032 21.9914
H 17.3832 23.5015 23.3671
Ow 15.093 9.36642 11.0517
H 15.3399 9.79364 10.2315
H 15.3818 9.97218 11.7342
Ow 8.92342 11.8228 28.5611
H 8.89765 11.9087 29.5141
H 9.82611 11.5702 28.3673
Ow 25.2925 28.0235 10.9605
H 26.0626 28.1408 11.5168
H 25.4049 27.1545 10.5752
Ow 27.7809 0.985183 6.91138
H 27.0995 0.755772 6.27947
H 27.3077 1.14029 7.72885
Ow 20.0722 14.6366 15.6403
H 19.6459 15.4553 15.8938
H 19.3797 13.9782 15.696
Ow 29.2394 15.9752 19.8809
H 28.352 16.1445 19.5648
H 29.2237 16.2482 20.7982
Ow 18.1401 27.3908 28.551
H 18.8157 27.9511 28.1692
H 18.61 26.6057 28.8322
Ow 9.17703 25.7503 7.73808
H 8.30869 25.3788 7.5824
H 9.07042 26.2895 8.52176
Ow 5.74562 16.7 4.37104
H 5.3729 15.82 4.31747
H 6.69173 16.5634 4.32164
Ow 5.60407 16.1328 7.13749
H 5.7285 16.2507 6.19576
H 4.6548 16.0826 7.24971
Ow 10.9117 20.8506 24.2899
H 10.1674 21.3948 24.0328
H 10.7178 20.5887 25.19
Ow 28.2014 4.64095 28.1389
H 28.4914 4.11982 28.8876
H 28.923 5.24812 27.9752
Ow 16.5926 19.8615 2.41486
H 16.4003 19.1154 2.9828
H 15.9211 20.508 2.63222
Ow 8.55496 13.1606 3.32763
H 8.19049 14.0438 3.26945
H 8.97093 13.1289 4.18914
Ow 24.2018 3.61302 27.1768
H 24.4748 3.05844 27.9076
H 23.8909 2.99833 26.5121
Ow 27.1321 22.3152 12.8153
H 26.8749 22.6779 13.663
H 27.7516 21.6179 13.0306
Ow 14.6857 14.1322 25.0228
H 14.2938 14.3171 25.8763
H 14.8707 13.1933 25.042
Ow 28.5176 25.4788 13.9624
H 28.8156 24.575 13.8591
H 28.4467 25.6014 14.9091
Ow 27.6821 13.2051 29.0686
H 28.48 12.6778 29.0286
H 27.3242 13.0329 29.9395
Ow 24.6468 29.949 6.18232
H 25.0258 29.9815 7.06069
H 24.6069 29.0159 5.97258
Ow 9.27753 22.7816 14.6029
H 8.39207 22.855 14.959
H 9.67578 22.0643 15.096
Ow 7.50168 31.5852 11.3748
H 7.86908 0.35794 10.5305
H 6.99169 30.7987 11.1811
Ow 3.6508 13.621 13.3649
H 3.66981 14.5759 13.4289
H 4.55197 13.3507 13.5411
Ow 23.749 9.77138 30.8087
H 23.0571 9.18168 30.5091
H 24.5053 9.54956 30.2655
Ow 23.9368 2.86616 15.8923
H 23.8276 1.97944 16.2359
H 24.5013 2.75913 15.1267
Ow 11.5868 31.0513 13.9659
H 11.9483 31.6354 14.6325
H 10.8109 31.5084 13.6415
Ow 5.15969 30.483 30.9015
H 4.43877 30.4662 30.2721
H 4.73097 30.5237 0.267387
Ow 29.01 11.5515 1.87471
H 29.0899 10.6583 1.53987
H 28.3424 11.4927 2.55819
Ow 11.4979 1.14209 20.826
H 12.2671 1.29207 20.2764
H 11.2984 31.702 20.7112
Ow 4.71096 8.39251 21.0156
H 4.50669 7.99013 21.8598
H 3.85755 8.61037 20.6408
Ow 15.8061 18.7152 23.2608
H 16.6761 18.3178 23.2984
H 15.2327 18.0785 23.6873
Ow 2.31618 30.0236 17.3691
H 1.98454 30.2132 18.2468
H 2.14251 29.0907 17.2432
Ow 4.75222 27.0649 7.03392
H 4.23027 27.3173 7.79555
H 5.39597 26.446 7.37859
Ow 1.01314 12.8097 27.182
H 31.7186 12.3908 27.5381
H 0.784248 13.7373 27.1244
Ow 19.7065 26.0833 23.6984
H 20.2808 26.3543 24.4146
H 20.2302 26.2148 22.908
Ow 10.9261 4.34818 22.5268
H 11.1953 4.3493 21.6083
H 10.3894 3.56091 22.6187
Ow 17.7576 5.63847 26.258
H 18.454 5.2084 26.7544
H 17.9534 6.57267 26.3301
Ow 30.1885 1.1887 2.24569
H 30.0653 0.970153 1.32196
H 29.8426 0.432326 2.71947
Ow 31.3466 11.2129 11.4617
H 0.512818 11.8501 11.1773
H 0.350078 10.5782 11.982
Ow 2.44362 17.8839 23.1251
H 2.10865 17.1699 22.5826
H 2.91957 18.4465 22.5143
Ow 28.0312 6.166 0.849347
H 27.1385 5.94393 1.11401
H 28.5856 5.56546 1.34754
Ow 20.0836 5.2155 21.7859
H 19.9603 5.72829 22.5847
H 20.9308 5.50238 21.445
Ow 6.20136 13.0177 14.2859
H 7.00485 13.5068 14.1087
H 6.35287 12.1574 13.8945
Ow 7.16569 2.21982 21.7004
H 7.38802 1.85872 20.8423
H 6.5542 1.58648 22.0762
Ow 20.5408 30.3299 2.88319
H 21.0494 30.1693 3.67807
H 21.1828 30.6454 2.24719
Ow 29.2381 23.493 16.1226
H 29.8258 22.7782 15.8778
H 29.8219 24.2011 16.3948
Ow 29.9314 21.2447 31.1853
H 30.3768 20.4243 31.397
H 29.0244 21.1021 31.4559
Ow 2.53796 19.6394 14.1308
H 2.24291 20.5484 14.076
H 1.89097 19.1462 13.6264
Ow 24.5323 24.6149 15.2866
H 23.7061 24.1721 15.0927
H 25.207 23.9795 15.0476
Ow 3.93326 19.4081 1.02901
H 4.82395 19.3057 1.36434
H 3.40997 19.6258 1.80036
Ow 19.4995 10.3245 11.3101
H 19.1485 9.98632 10.4863
H 19.993 11.1051 11.0583
Ow 7.32512 7.0051 0.709228
H 7.9668 7.70111 0.850803
H 7.61897 6.28948 1.27294
Ow 8.74848 0.904862 8.95242
H 8.38147 31.6819 8.42837
H 9.69551 0.773915 8.90545
Ow 18.1048 2.96322 30.274
H 18.2714 3.88455 30.0749
H 17.217 2.805 29.9529
Ow 1.37522 31.5412 26.7646
H 0.810764 0.518979 26.1484
H 0.849232 30.796 27.0547
Ow 27.8187 21.1894 9.02291
H 28.434 21.2909 8.29673
H 27.667 20.246 9.07885
Ow 12.7919 24.4481 29.4967
H 12.4631 23.5756 29.713
H 13.5761 24.2859 28.9725
Ow 22.9412 3.89214 23.1684
H 22.7048 4.78991 22.9353
H 22.1636 3.37616 22.9555
Ow 23.0078 8.35859 14.3767
H 22.659 7.75116 13.7243
H 23.1841 9.16178 13.8867
Ow 20.8162 0.416443 19.5512
H 20.8041 31.4161 20.3738
H 21.0596 31.2575 18.8901
Ow 22.0003 13.7045 28.6446
H 22.3934 13.2711 29.4021
H 22.6116 14.4082 28.4268
Ow 13.3662 2.95479 17.1744
H 12.863 3.38934 16.4858
H 14.1135 3.53326 17.327
Ow 20.2932 7.35561 23.7607
H 20.8944 8.07522 23.5684
H 19.5845 7.76183 24.2596
Ow 18.6421 27.0136 14.0769
H 18.0536 26.56 14.6803
H 18.1951 26.9753 13.2314
Ow 11.9732 6.38841 8.31163
H 12.1702 6.26874 9.24066
H 12.7089 5.97963 7.8557
Ow 3.14182 12.7572 23.9473
H 2.36354 12.2236 24.1079
H 3.32541 13.1734 24.7895
Ow 24.1676 1.32055 11.6943
H 23.9067 0.981663 10.8379
H 23.8692 2.23004 11.6935
Ow 6.13208 22.0274 10.7524
H 6.14342 22.2764 11.6765
H 5.2027 21.9753 10.5292
Ow 14.9258 11.8749 29.4589
H 15.191 10.9901 29.2076
H 14.1192 11.7507 29.9591
Ow 15.774 21.4758 16.6079
H 15.7174 21.5046 15.6528
H 16.5996 21.9148 16.8126
Ow 12.7657 3.6148 26.2685
H 13.653 3.954 26.3864
H 12.2321 4.39161 26.1011
Ow 6.31465 3.02436 13.5605
H 6.41914 3.81365 13.0291
H 5.38782 2.80007 13.4774
Ow 30.1789 16.4201 13.9651
H 30.164 15.6502 13.3966
H 29.287 16.4836 14.3068
Ow 22.9988 3.86475 30.5262
H 22.4573 4.53779 30.9385
H 23.8755 4.2477 30.4955
Ow 10.0123 1.70238 25.3588
H 9.67764 0.818125 25.5082
H 9.74625 1.91157 24.4635
Ow 5.51875 30.3359 18.3946
H 5.00943 30.644 19.1442
H 4.93264 29.7325 17.9379
Ow 16.9195 30.5426 13.1162
H 15.9981 30.382 12.9128
H 17.0695 31.4497 12.8502
Ow 26.971 16.7464 18.4408
H 26.028 16.6179 18.5427
H 27.1501 16.5002 17.5333
Ow 24.055 29.5882 24.7811
H 24.0697 30.0573 23.9468
H 23.2475 29.8782 25.2053
Ow 11.3832 4.45443 19.7478
H 11.5774 5.297 19.3371
H 12.2417 4.06444 19.9128
Ow 10.9002 21.6498 30.5756
H 10.259 22.3096 30.8395
H 11.4852 21.5689 31.329
Ow 9.51507 21.9322 2.08291
H 9.28371 22.5387 1.37947
H 10.4712 21.9604 2.11933
Ow 25.2628 9.82951 7.37398
H 24.351 9.54463 7.43486
H 25.4777 9.74925 6.44469
Ow 14.5546 18.8328 13.1557
H 15.3859 18.4038 12.9527
H 14.1437 18.264 13.8068
Ow 11.8026 16.5199 23.6996
H 11.3552 17.334 23.4687
H 12.7091 16.7816 23.8607
Ow 30.5817 30.6961 8.46541
H 30.2851 31.2313 9.20142
H 30.7104 31.3202 7.75122
Ow 16.7985 16.2994 9.39718
H 16.3565 15.9375 8.62915
H 17.0651 17.1786 9.1286
Ow 5.28928 10.7558 29.8329
H 6.05336 10.8918 29.2726
H 4.65412 11.4069 29.5347
Ow 20.68 2.34278 24.1743
H 19.9813 2.99543 24.1277
H 20.6378 2.00965 25.0707
Ow 19.6408 3.96864 13.605
H 20.2655 4.27432 14.2626
H 18.9917 3.47182 14.1031
Ow 1.35532 21.3126 20.15
H 1.61914 21.8595 19.41
H 2.16751 20.9019 20.4464
Ow 14.749 0.965156 6.30401
H 15.2451 1.4951 6.92794
H 15.2002 1.09198 5.46939
Ow 13.1466 22.3681 12.1938
H 13.9274 22.057 12.6518
H 13.2967 22.1347 11.2777
Ow 7.68436 19.7317 17.5227
H 7.54548 20.4695 16.929
H 7.32543 18.9771 17.0558
Ow 11.2497 1.61002 2.07173
H 11.6906 1.53227 1.22571
H 11.6245 2.39747 2.46625
Ow 30.6861 23.6322 0.789148
H 30.4877 22.9001 31.6942
H 31.4218 24.0798 0.371399
Ow 12.375 27.4606 22.0963
H 11.5732 26.9379 22.1029
H 13.0567 26.8582 22.394
Ow 20.0766 1.76049 26.7036
H 19.1938 1.50662 26.9727
H 20.6039 1.67343 27.4977
Ow 27.6407 16.1059 15.7201
H 28.0275 16.9805 15.6791
H 28.3672 15.5335 15.9663
Ow 19.41 31.1819 9.23236
H 19.9019 30.8972 10.0025
H 18.6289 30.6287 9.22847
Ow 24.4988 6.84602 6.53878
H 25.3737 6.47493 6.65331
H 24.5893 7.45118 5.80269
Ow 19.216 8.97422 8.30966
H 19.3772 9.86516 7.99906
H 18.2672 8.8655 8.2449
Ow 27.4582 1.67143 17.418
H 27.5449 2.31994 16.7193
H 27.8577 2.08704 18.1821
Ow 20.6184 2.4434 4.86391
H 20.4784 3.07124 5.57275
H 21.547 2.21869 4.9222
Ow 11.4809 8.34455 5.41907
H 12.0708 7.71066 5.01103
H 11.0174 7.84359 6.09018
Ow 28.6615 27.2105 10.1873
H 28.5173 27.5826 11.0574
H 28.3271 26.3159 10.2505
Ow 24.0159 9.84964 1.87433
H 23.9022 9.83404 0.924034
H 23.1974 10.217 2.20797
Ow 12.9558 27.1604 1.55563
H 13.2381 26.2613 1.38776
H 12.0047 27.1369 1.45071
Ow 24.5014 0.660171 27.8717
H 24.6297 31.2074 27.7586
H 24.1527 0.75014 28.7585
Ow 20.4617 13.0903 11.1946
H 19.867 13.5519 10.6034
H 21.2651 12.9771 10.6867
Ow 16.809 31.5315 31.4911
H 17.5586 31.6628 0.582658
H 16.6685 0.897104 31.0835
Ow 10.6537 30.041 21.3492
H 10.6992 29.7019 20.4553
H 9.72652 29.9851 21.5803
Ow 19.1668 25.6094 11.6161
H 19.5739 26.3374 11.1465
H 19.1348 24.8986 10.9758
Ow 21.6352 20.5119 24.5786
H 22.5223 20.3976 24.9195
H 21.752 21.0038 23.7658
Ow 7.83531 30.2744 7.43404
H 6.89882 30.2317 7.24069
H 7.97028 29.6146 8.11425
Ow 12.611 17.8141 30.1691
H 13.213 17.9071 30.9074
H 12.5036 16.8687 30.0646
Ow 29.286 30.0523 19.6088
H 29.5998 30.6696 18.948
H 29.8833 29.3071 19.5441
Ow 15.2676 24.5859 28.4625
H 15.5514 25.356 28.9551
H 15.6517 24.702 27.5935
Ow 0.937788 6.48955 16.334
H 1.39526 6.15852 15.5611
H 1.21248 5.90797 17.0429
Ow 26.1256 1.86758 24.7992
H 25.1855 1.78582 24.9597
H 26.3559 2.72621 25.1541
Ow 10.6185 6.60172 15.6345
H 9.84032 6.30749 15.1611
H 10.2976 6.82636 16.5078
Ow 30.1194 14.4378 16.4689
H 30.9846 14.1134 16.7186
H 29.8796 13.9164 15.7028
Ow 23.6963 11.8247 18.5309
H 23.6523 10.976 18.9713
H 22.7876 12.1234 18.4942
Ow 29.8735 12.3538 8.13585
H 30.1045 13.1228 8.65695
H 30.5648 12.2943 7.47645
Ow 27.0649 12.4107 17.9096
H 26.4283 12.506 18.6181
H 27.7286 13.0758 18.0923
Ow 5.39694 29.7441 6.85215
H 5.17069 28.8219 6.97297
H 4.81432 30.2143 7.44857
Ow 21.8585 30.0858 17.7646
H 22.2728 29.2526 17.5403
H 20.9576 29.9973 17.4534
Ow 20.7014 1.89478 29.3203
H 21.4033 2.49866 29.563
H 19.8955 2.37842 29.5012
Ow 28.6003 7.77232 23.6561
H 28.0844 7.82386 24.4607
H 28.7041 6.83411 23.4972
Ow 16.2538 30.8982 26.9252
H 16.4204 0.33779 26.7633
H 15.9924 30.5492 26.0731
Ow 15.8756 7.6483 3.71787
H 15.2842 8.3702 3.93089
H 16.6549 7.81171 4.24913
Ow 2.58921 13.3077 6.49979
H 3.07354 12.9094 7.22298
H 2.40295 14.1982 6.79734
Ow 19.9808 18.4594 4.22927
H 20.4216 18.4733 3.37974
H 20.6871 18.3404 4.86425
Ow 19.6901 18.9621 11.9453
H 18.9201 18.4057 12.0629
H 20.4231 18.4236 12.2433
Ow 27.3167 20.2969 0.447734
H 27.3363 19.3446 0.353116
H 26.6124 20.5814 31.3543
Ow 18.6918 22.0182 14.7136
H 18.2223 22.5596 14.0789
H 19.291 22.6243 15.1493
Ow 27.897 10.4832 15.7057
H 27.7435 9.59934 15.3719
H 28.0801 10.3596 16.6371
Ow 3.66129 5.35899 6.93666
H 3.73943 5.22421 5.99223
H 2.75357 5.13093 7.13733
Ow 2.67653 3.61117 14.6245
H 2.83223 2.98857 15.3347
H 1.88311 3.29162 14.1949
Ow 10.8435 13.9397 1.99072
H 11.173 13.2824 1.37779
H 10.0246 13.5704 2.32122
Ow 16.5602 8.97899 7.41098
H 15.9331 9.6835 7.2479
H 17.0172 8.86675 6.57742
Ow 1.47389 1.78231 11.4657
H 1.08179 2.42549 12.0563
H 2.29765 1.53929 11.8883
Ow 23.9008 30.7027 14.3252
H 24.6868 31.1264 14.6701
H 23.2219 31.3752 14.3798
Ow 29.7177 6.67225 16.089
H 29.4089 5.77167 15.9901
H 30.6718 6.59774 16.1104
Ow 14.858 19.1755 17.6306
H 15.322 19.8698 17.1628
H 14.1872 19.6338 18.1367
Ow 26.7511 28.9782 14.9217
H 26.4695 29.6245 15.5692
H 25.9644 28.4653 14.7368
Ow 11.143 7.14491 0.961194
H 10.9546 7.14723 31.5117
H 10.6261 7.87043 1.3115
Ow 28.1887 28.8604 7.71279
H 29.0182 29.2994 7.90093
H 28.153 28.1366 8.33819
Ow 31.4378 12.2159 3.50254
H 0.767539 12.4084 3.0455
H 30.8009 12.0704 2.80297
Ow 22.8316 24.424 18.9173
H 22.8046 24.499 19.8712
H 22.9988 23.4957 18.7542
Ow 30.1533 4.7813 5.48946
H 29.3328 4.37798 5.20601
H 30.8182 4.11208 5.32738
Ow 8.63959 12.1416 23.9666
H 8.14447 11.9688 24.7674
H 9.02037 13.0093 24.1025
Ow 19.4376 29.9416 16.7571
H 19.4828 30.06 15.8083
H 18.811 30.6025 17.0519
Ow 14.4823 25.6358 23.2864
H 14.8274 26.148 24.0177
H 13.8833 25.0099 23.6934
Ow 2.30612 23.1704 2.45547
H 1.64119 22.5228 2.22128
H 2.74906 23.3687 1.63042
Ow 19.192 29.6565 14.0334
H 18.2903 29.968 13.9545
H 19.1084 28.7147 14.1822
Ow 23.2079 1.8971 25.4796
H 22.687 1.09939 25.5719
H 22.6325 2.50748 25.0185
Ow 10.0012 28.2616 14.6299
H 10.6589 28.9274 14.8311
H 9.27098 28.752 14.2525
Ow 22.6247 18.2011 5.44849
H 22.5519 19.1178 5.18265
H 23.4528 18.155 5.92643
Ow 10.115 19.1749 5.07216
H 9.65038 19.7138 5.71238
H 10.883 19.694 4.83368
Ow 9.05872 24.5151 12.1888
H 9.83107 24.011 11.9328
H 8.95113 24.3319 13.1221
Ow 21.7699 15.6858 9.27855
H 21.5477 16.6033 9.43688
H 20.9834 15.2015 9.52983
Ow 11.606 26.0858 27.8423
H 11.9072 25.3341 28.3527
H 11.4848 26.7816 28.4884
Ow 17.7099 3.05591 5.76571
H 17.7622 3.34165 4.85365
H 18.5716 3.25802 6.13028
Ow 10.6259 16.7833 1.96879
H 10.3948 17.2076 1.14244
H 10.5387 15.8469 1.7904
Ow 27.7121 24.3085 11.0165
H 27.4773 23.6693 11.6892
H 28.5034 23.9523 10.6127
Ow 26.3481 16.2413 12.0623
H 26.1825 16.7808 12.8354
H 25.4801 15.952 11.7811
Ow 19.7137 19.0237 29.2141
H 20.3985 18.6036 28.6938
H 20.0675 19.0462 30.1032
Ow 24.0785 20.3702 25.5397
H 24.0694 20.5322 26.4831
H 24.5558 21.1144 25.173
Ow 2.71996 27.6314 26.9587
H 2.51032 26.8449 26.455
H 2.98503 28.2742 26.3009
Ow 25.8277 25.2999 1.74747
H 24.9051 25.1869 1.51899
H 26.2577 24.5167 1.40414
Ow 20.8861 19.4776 20.7685
H 19.9878 19.3715 20.4554
H 20.9089 19.001 21.5983
Ow 16.7852 22.9224 31.4773
H 16.1322 22.7909 0.67566
H 16.8229 22.0833 31.0183
Ow 1.12524 22.9837 5.8115
H 1.22615 22.2161 6.37438
H 31.6891 23.2171 5.88754
Ow 16.0968 16.1497 21.449
H 16.9244 15.6899 21.3079
H 15.5184 15.4905 21.8326
Ow 2.78655 11.7613 29.0278
H 2.24777 12.1811 28.3572
H 2.4869 10.8523 29.042
Ow 29.2641 5.16491 12.699
H 29.0446 5.05573 13.6242
H 29.6149 6.05349 12.6388
Ow 6.79481 5.34615 12.0022
H 7.33199 5.57954 12.7593
H 6.00193 5.87364 12.0987
Ow 3.8562 30.5001 20.5177
H 3.03857 30.9188 20.2487
H 3.6382 29.5707 20.5876
Ow 8.20931 28.4362 9.68645
H 7.427 28.3064 10.2225
H 8.83783 28.8529 10.276
Ow 29.5375 22.1368 4.39014
H 29.5485 21.3383 4.91783
H 30.1909 21.9826 3.70784
Ow 0.997126 19.9436 31.0455
H 0.977366 20.4655 30.2433
H 0.872371 19.0423 30.7486
Ow 5.16886 29.9498 3.98774
H 6.08514 29.7669 3.7798
H 5.11596 29.859 4.93916
Ow 18.6565 7.50928 21.0291
H 19.063 6.65511 21.1752
H 17.8606 7.49032 21.5606
Ow 19.6631 8.19601 28.2321
H 19.9731 9.06121 28.4997
H 18.9976 8.3744 27.5677
Ow 15.3125 4.50796 26.7815
H 16.1099 5.01472 26.6279
H 15.1879 4.53829 27.73
Ow 4.93887 20.5485 23.6645
H 5.37052 21.4011 23.7195
H 4.73953 20.44 22.7345
Ow 3.65105 2.18548 20.179
H 4.58233 2.14032 20.3956
H 3.62648 2.57609 19.3054
Ow 1.58038 13.0182 31.0146
H 0.712507 12.7381 31.3054
H 1.84234 12.3592 30.3717
Ow 24.5996 22.3114 21.3643
H 23.7128 22.263 21.7214
H 24.8591 21.3982 21.2418
Ow 8.32367 16.0953 3.76185
H 9.08417 16.5013 3.34587
H 8.66676 15.7158 4.57084
Ow 26.7422 23.7227 7.02045
H 27.6924 23.6069 7.02108
H 26.451 23.3126 6.20603
Ow 13.2058 21.8952 25.1545
H 12.4581 21.4803 24.7243
H 13.9418 21.7348 24.5639
Ow 25.2115 22.508 23.8598
H 26.1569 22.6471 23.9152
H 25.0298 22.4647 22.921
Ow 27.42 19.6843 23.1533
H 28.0921 19.0357 22.9442
H 27.0749 19.4071 24.0021
Ow 10.651 26.5362 10.8544
H 10.2055 26.2152 11.6385
H 10.1724 27.3295 10.6142
Ow 0.431106 15.4057 3.4336
H 0.941382 14.6134 3.60117
H 31.0379 15.1917 3.73718
Ow 10.3055 12.6429 5.36454
H 9.86525 13.3729 5.79993
H 10.5111 12.0308 6.07112
Ow 21.5097 23.2709 9.1041
H 21.9102 24.1021 9.35878
H 20.6771 23.2512 9.57584
Ow 14.8368 15.9767 11.4814
H 14.5526 16.7523 10.9978
H 15.7782 15.9227 11.3166
Ow 26.3498 4.84115 9.30138
H 26.6974 5.25206 10.0929
H 26.6903 5.37579 8.58412
Ow 21.1172 13.5618 24.3911
H 20.8292 12.6765 24.6134
H 21.6384 13.8408 25.1439
Ow 31.076 27.9504 24.6925
H 30.2305 28.2897 24.3989
H 31.081 27.0373 24.4054
Ow 18.784 13.5731 4.34823
H 18.4346 13.5085 5.23707
H 18.6499 14.4888 4.10362
Ow 16.8186 31.2541 21.7368
H 16.6934 30.3293 21.524
H 16.0236 31.683 21.4201
Ow 10.563 30.3503 6.79931
H 10.7071 31.1568 6.30433
H 9.61369 30.2281 6.78787
Ow 22.0663 21.827 22.1923
H 21.5146 21.2309 21.6858
H 21.67 22.6887 22.0632
Ow 1.23568 29.1795 23.1668
H 0.584476 28.605 23.5694
H 1.86124 29.3617 23.868
Ow 4.49811 16.4986 13.6246
H 4.41759 17.3909 13.9618
H 5.42029 16.4162 13.3816
Ow 31.0793 28.488 13.4329
H 31.3906 29.1892 12.8606
H 30.1538 28.3887 13.2094
Ow 8.11335 19.1197 22.2853
H 9.01959 19.1687 22.5895
H 7.66619 18.5924 22.9473
Ow 25.4432 21.7577 10.6793
H 25.965 21.9232 11.4645
H 24.5482 21.9816 10.9343
Ow 30.1346 17.3639 6.00809
H 29.9186 16.5474 5.55756
H 31.0914 17.3906 6.01097
Ow 11.7584 21.2305 5.69701
H 11.4363 21.5304 6.54702
H 12.1359 22.0123 5.29394
Ow 4.8463 26.5425 23.181
H 4.46335 27.0307 22.4521
H 5.78626 26.5392 23.0001
Ow 12.9823 6.51023 4.39683
H 12.7673 5.57939 4.33713
H 13.4269 6.7072 3.57234
Ow 15.7545 9.79832 27.5803
H 15.5732 9.1139 28.2244
H 16.2813 9.36338 26.9098
Ow 12.6475 2.13451 23.3349
H 12.9934 3.02215 23.2417
H 12.4417 1.86201 22.4406
Ow 9.8615 8.5667 22.6082
H 8.98334 8.93156 22.7175
H 9.9593 8.45577 21.6625
Ow 18.3363 17.6983 22.755
H 18.2367 16.79 23.0401
H 19.2804 17.8138 22.647
Ow 6.91532 25.7513 3.54372
H 6.82121 25.3683 4.41592
H 7.70015 26.2959 3.60413
Ow 7.5696 1.85406 19.0623
H 8.23695 2.48308 18.7881
H 7.56697 1.19077 18.3722
Ow 26.0645 27.9612 30.3296
H 25.1204 28.0825 30.4308
H 26.39 27.8549 31.2235
Ow 3.0246 6.74532 25.9457
H 3.64545 7.31136 26.4044
H 3.40508 6.62746 25.0753
Ow 23.9073 27.0971 25.7883
H 23.987 26.7309 24.9076
H 24.0348 28.0383 25.6694
Ow 9.30875 23.0156 5.9953
H 9.15346 22.6812 5.11196
H 8.47985 23.4229 6.24689
Ow 21.1429 26.9305 21.5057
H 21.0339 27.8812 21.5249
H 20.9807 26.6887 20.5939
Ow 28.0134 31.1596 22.0361
H 28.3322 30.6181 21.3141
H 27.9052 30.5485 22.7649
Ow 26.7574 22.6016 4.16337
H 27.7011 22.6679 4.30942
H 26.423 23.4782 4.35308
Ow 11.6483 21.5179 19.63
H 12.3926 20.9627 19.8623
H 12.0327 22.2376 19.1294
Ow 18.8282 5.16197 9.9277
H 18.2181 5.59462 9.33037
H 18.6256 5.53172 10.787
Ow 24.8576 17.1218 6.86452
H 24.4466 17.1604 7.72811
H 25.4458 16.3681 6.91215
Ow 25.547 4.02014 22.7495
H 25.9886 3.21427 23.0173
H 24.6392 3.7572 22.5976
Ow 1.65043 24.1551 28.0997
H 2.52419 24.492 28.2979
H 1.10783 24.4505 28.8309
Ow 14.0533 11.2876 25.5245
H 14.7727 10.7799 25.1489
H 13.3213 11.147 24.924
Ow 23.2106 19.2755 8.33173
H 23.3854 19.3617 9.26889
H 22.2813 19.052 8.2805
Ow 2.89743 19.2341 8.30979
H 2.5246 18.3526 8.29627
H 3.61428 19.2012 7.67632
Ow 21.1517 26.5094 25.9222
H 22.0808 26.7353 25.9665
H 21.1099 25.6039 26.2298
Ow 21.9709 30.3171 5.46517
H 22.8492 30.2648 5.84191
H 21.4542 29.6916 5.97319
Ow 23.1837 4.65121 5.54458
H 22.9595 5.06821 4.71265
H 23.927 5.15657 5.87376
Ow 6.60491 10.5721 18.5802
H 6.61208 11.4506 18.2001
H 7.26832 10.6035 19.2695
Ow 15.6558 13.6863 3.11671
H 14.8128 13.2451 3.2215
H 16.2986 13.0561 3.44206
Ow 10.1626 19.1773 19.4264
H 10.9665 18.7966 19.78
H 10.391 20.0875 19.2376
Ow 9.70143 3.64461 28.0974
H 8.78148 3.88226 27.9814
H 9.89081 3.05502 27.3675
Ow 4.93452 22.2368 17.7095
H 4.91377 21.378 18.1317
H 5.48993 22.7703 18.278
Ow 9.26123 8.98852 1.76111
H 8.58863 9.60006 1.46136
H 9.19213 9.00478 2.71568
Ow 4.68529 7.16947 2.88375
H 5.24331 7.54726 3.56355
H 3.80214 7.46297 3.10766
Ow 23.568 17.4802 1.19957
H 22.8941 17.0657 1.73851
H 23.5956 18.3868 1.50516
Ow 6.99034 24.5578 9.88043
H 7.49763 24.7021 10.6792
H 6.5665 23.7102 10.0152
Ow 23.5371 14.5174 25.9948
H 23.6539 15.2637 26.5828
H 23.907 14.8083 25.1613
Ow 0.700144 16.4291 21.4153
H 31.2625 16.2193 21.5318
H 1.14701 15.5849 21.4775
Ow 18.3804 27.3339 17.6181
H 18.4584 28.1963 17.2102
H 17.876 26.8163 16.9905
Ow 19.2709 19.9486 16.5293
H 19.0128 19.0774 16.2284
H 18.9713 20.5396 15.8385
Ow 19.8944 22.0261 25.9846
H 20.2926 22.4599 26.7392
H 20.5776 21.4421 25.6554
Ow 8.58368 14.2304 13.8109
H 8.1198 15.066 13.7573
H 9.36768 14.4237 14.3249
Ow 1.38784 3.39956 2.27779
H 0.826316 3.75827 1.59059
H 2.13455 3.02811 1.80803
Ow 20.6842 4.24747 7.00302
H 21.5645 4.3988 6.65886
H 20.8258 3.94853 7.90125
Ow 27.5521 2.52815 0.839092
H 28.0983 2.73315 31.5692
H 27.9512 3.0146 1.56044
Ow 2.26231 25.3764 25.5279
H 3.17492 25.0969 25.6004
H 1.82225 24.9527 26.2648
Ow 20.1348 18.5111 0.444871
H 20.8974 17.982 31.6999
H 20.5032 19.304 0.834512
Ow 14.6118 16.8952 0.709275
H 14.1373 17.2929 1.43931
H 15.3909 17.4411 0.603677
Ow 11.0909 20.9259 15.5041
H 11.1319 19.9992 15.7405
H 11.6528 21.3621 16.1446
Ow 21.6466 16.5612 17.318
H 20.7944 16.7848 16.9438
H 21.4402 16.1593 18.1619
Ow 13.7814 19.4906 6.36518
H 13.1235 20.0973 6.02569
H 14.4994 20.053 6.65552
Ow 10.1281 3.72179 30.875
H 9.22443 3.78395 31.1843
H 10.0524 3.40569 29.9747
Ow 14.898 4.74018 29.3783
H 13.946 4.78612 29.4672
H 15.2321 5.00695 30.2347
Ow 28.8042 30.6042 3.71717
H 29.3905 30.1878 3.08541
H 28.0012 30.7732 3.22426
Ow 2.54512 21.9226 24.1646
H 2.8526 22.6979 23.6949
H 3.28223 21.3129 24.1298
Ow 15.1948 4.43198 12.9942
H 14.9357 3.71712 12.4128
H 15.4305 5.14785 12.4041
Ow 7.97301 19.044 27.5838
H 7.8064 19.3061 28.4892
H 7.8494 18.0949 27.5821
Ow 11.6033 24.5673 15.383
H 11.6338 23.8792 14.7183
H 10.67 24.6978 15.5507
Ow 30.161 14.1541 12.3861
H 30.4176 14.2365 11.4676
H 29.2386 13.9001 12.3557
Ow 22.0364 8.18753 17.0092
H 21.3443 7.52696 16.9799
H 22.3856 8.20886 16.1182
Ow 12.194 15.2281 29.862
H 12.5607 14.5351 30.4111
H 11.2515 15.1894 30.0243
Ow 8.4809 1.90972 1.51495
H 8.48711 1.13425 0.953835
H 9.39407 2.02226 1.77892
Ow 30.5953 0.808571 6.37051
H 30.7952 1.62381 5.91046
H 29.6453 0.718147 6.29671
Ow 7.30413 16.6839 13.6022
H 8.00475 17.0996 13.0997
H 7.22726 17.2172 14.3934
Ow 8.22712 9.28365 16.4364
H 8.77717 8.63846 16.8807
H 7.33182 9.03379 16.6649
Ow 13.8845 14.3979 27.5651
H 13.2863 14.6555 28.2665
H 14.7132 14.8218 27.7886
Ow 18.4922 6.42346 12.5761
H 17.7515 6.88311 12.9716
H 18.652 5.68048 13.1581
Ow 4.03972 2.89361 1.57286
H 4.04064 1.94418 1.45113
H 4.57703 3.03617 2.3521
Ow 3.5235 9.63 14.6864
H 4.41277 9.71023 14.3415
H 3.5113 8.77814 15.1228
Ow 17.6549 0.581421 17.2263
H 17.998 1.07176 17.9734
H 16.7051 0.597669 17.3443
Ow 4.41672 18.9726 5.87444
H 4.84143 18.2813 5.36658
H 5.01243 19.719 5.80891
Ow 18.8123 0.847313 1.71958
H 19.2636 31.6751 2.24434
H 19.4111 1.59404 1.70776
Ow 25.3367 7.40034 23.3183
H 25.5884 7.29369 22.401
H 25.8837 6.77348 23.7917
Ow 10.4606 14.2851 22.1661
H 10.8318 14.882 22.8159
H 11.0293 13.5157 22.1943
Ow 10.9372 2.80168 8.06033
H 11.278 2.33686 8.82453
H 11.6817 2.8568 7.46122
Ow 4.12978 26.9369 29.8807
H 3.21677 27.1163 30.1053
H 4.59453 26.975 30.7166
Ow 6.46051 7.00981 6.7718
H 7.36989 7.12888 7.0458
H 6.51307 6.43329 6.0095
Ow 24.8818 8.46706 3.98989
H 24.4891 9.05312 3.34293
H 25.3895 7.84288 3.47136
Ow 12.2498 12.232 23.4097
H 11.9119 11.3401 23.3287
H 11.7462 12.615 24.1279
Ow 28.0954 9.79517 29.8127
H 28.7272 10.2652 29.2684
H 27.3654 9.60523 29.2234
Ow 22.1958 21.1683 31.4568
H 22.4973 22.047 31.6875
H 21.8572 20.8079 0.787342
Ow 19.9906 25.4762 31.6149
H 20.3236 24.601 0.324283
H 19.1029 25.4821 0.484039
Ow 14.4029 26.3976 8.3891
H 15.0611 26.9638 7.9859
H 14.7541 26.2024 9.2579
Ow 4.94645 10.2682 26.3445
H 5.12788 11.0895 25.8876
H 5.2761 9.58854 25.7566
Ow 2.75696 18.596 16.8136
H 2.72619 18.9473 15.9238
H 3.50061 19.0399 17.2213
Ow 1.17437 22.6873 11.3891
H 1.44951 22.9216 12.2754
H 1.94047 22.2611 11.0048
Ow 16.1538 12.0864 9.78441
H 15.2967 12.4937 9.90984
H 16.4218 12.3567 8.90614
Ow 18.1425 3.63775 24.3834
H 17.9193 3.81252 23.4691
H 18.2086 4.50448 24.7842
Ow 24.2753 16.0257 18.9775
H 23.601 16.4909 18.4825
H 24.2063 16.3767 19.8654
Ow 10.0216 21.5595 12.2895
H 9.51334 21.8658 13.0406
H 10.9113 21.457 12.6275
Ow 1.29833 4.26481 18.1747
H 0.604404 3.81593 17.6918
H 0.885215 4.53175 18.9959
Ow 24.7542 10.0812 23.4495
H 25.0979 10.3603 24.2982
H 25.1633 9.23016 23.293
Ow 5.61857 12.0073 22.3838
H 5.2683 11.9267 21.4966
H 4.85689 12.2165 22.9244
Ow 6.64083 21.424 15.6886
H 6.07445 21.4807 16.4582
H 6.08799 21.7116 14.9621
Ow 10.9487 27.5245 6.29756
H 10.2912 27.0992 6.84806
H 10.7918 28.4612 6.41668
Ow 7.30148 9.91691 9.96267
H 7.72783 9.9736 9.10755
H 6.50474 10.439 9.86868
Ow 4.16182 14.555 31.5699
H 3.94084 15.4863 31.5727
H 3.3406 14.1141 31.352
Ow 1.68196 21.3643 28.3998
H 1.61158 22.3098 28.268
H 1.30532 20.9829 27.6068
Ow 29.5636 6.35434 18.7251
H 29.6508 6.46311 17.7782
H 28.6269 6.45714 18.8933
Ow 14.1076 4.41858 23.3433
H 14.9388 4.21411 23.7718
H 13.9823 5.35496 23.4972
Ow 25.4211 8.72679 11.1559
H 26.0492 9.21802 10.6263
H 24.9769 8.15355 10.5311
Ow 15.3871 23.7957 2.04055
H 14.5625 23.9441 1.57766
H 15.1766 23.1344 2.69978
Ow 29.6408 8.97513 10.1623
H 28.7397 9.17073 9.90542
H 30.0374 9.83227 10.318
Ow 12.8232 31.6154 26.3271
H 13.1444 31.4794 27.2185
H 12.6852 30.7324 25.9844
Ow 18.217 23.965 24.8255
H 18.7433 24.7055 24.5239
H 18.8285 23.4233 25.3243
Ow 26.8795 2.08003 9.9658
H 26.0218 1.7724 10.2589
H 26.7569 3.01564 9.80512