3152
Atoms. Timestep: 0
O 31.5833 6.72379 17.6564
H 31.5992 7.0433 16.7542
H 32.5024 6.7138 17.9236
O 27.8234 28.3165 20.9654
H 28.0385 28.6071 20.0792
H 27.2078 27.5946 20.8384
O 19.566 5.26149 2.72556
H 19.5981 4.54498 2.09167
H 19.2192 4.86121 3.52288
O 3.33378 4.47884 8.39396
H 3.5967 3.73398 8.9346
H 3.98649 4.50996 7.69451
O 29.4205 23.2518 18.5585
H 28.6774 23.0337 19.1211
H 29.0291 23.4361 17.7047
O 7.08243 12.4366 23.545
H 6.23113 12.7826 23.8131
H 7.62458 12.4973 24.3316
O 2.56899 30.2039 30.9671
H 2.00706 30.2975 30.1978
H 2.55899 29.2662 31.1589
O 21.0767 26.8624 9.3504
H 20.3468 26.9227 9.96667
H 20.673 26.9687 8.48904
O 12.6331 18.5452 10.4916
H 12.9235 19.3332 10.0322
H 11.9987 18.8623 11.1344
O 17.9633 30.5506 25.8155
H 17.299 30.9986 26.3392
H 17.979 31.0296 24.987
O 15.4887 2.43569 25.1097
H 14.8419 2.99399 25.5411
H 15.5973 1.69196 25.7024
O 5.2611 9.58866 8.85825
H 6.03403 10.0238 9.21808
H 4.79045 10.2808 8.39385
O 1.45277 22.7708 12.9817
H 1.88732 23.061 13.7837
H 1.67758 23.4371 12.3323
O 1.37633 20.8827 2.21704
H 2.11646 21.2005 2.73416
H 1.20908 21.5803 1.58337
O 28.5249 25.8087 6.69646
H 28.3447 25.8858 7.63338
H 29.3215 25.2804 6.64792
O 1.46597 6.9386 2.22922
H 1.90778 6.17999 1.84773
H 1.27126 6.67565 3.12877
O 13.5118 27.0688 4.16264
H 12.8936 27.3095 3.47264
H 13.6515 27.879 4.65296
O 27.9865 32.3748 24.6894
H 27.5195 31.7392 25.2317
H 28.5191 0.907462 25.309
O 28.4929 11.9773 9.66249
H 27.7673 12.2249 10.2356
H 29.1846 12.6071 9.86526
O 19.0303 21.9531 32.0809
H 19.351 21.1368 31.6974
H 19.8077 22.5072 32.1504
O 4.44141 29.0831 20.1795
H 5.36471 28.979 19.9495
H 4.39818 29.9315 20.6206
O 10.9719 29.9629 23.4381
H 10.9932 30.0087 22.4822
H 10.0472 29.8389 23.6519
O 5.6213 25.9918 4.19375
H 6.12405 25.7166 3.42711
H 5.94892 25.442 4.90557
O 20.2347 7.27999 23.851
H 20.8422 7.85796 23.3895
H 19.5942 7.02529 23.1868
O 13.4244 5.71702 19.56
H 14.2058 5.74144 19.0076
H 12.7928 5.20053 19.0594
O 31.5706 17.0711 18.0559
H 30.9358 17.4883 17.4734
H 32.3504 17.6229 17.9956
O 31.1996 25.1502 3.83554
H 32.0301 25.3551 3.406
H 31.4272 25.0424 4.75902
O 19.6645 1.92179 15.8767
H 18.7773 1.84197 15.5262
H 19.5484 1.91919 16.8268
O 7.78447 16.4432 3.32604
H 7.075 16.4799 3.96756
H 8.44045 15.8723 3.72605
O 26.3293 2.87736 9.43409
H 25.525 2.46953 9.75518
H 26.4436 3.6504 9.98687
O 21.0455 31.6911 4.6603
H 20.4205 32.0414 4.0256
H 20.9103 32.2193 5.44697
O 26.1097 18.4056 1.86234
H 26.5456 17.9015 1.17521
H 26.5201 18.1089 2.67462
O 19.9601 24.4599 19.4908
H 20.1527 25.3677 19.2559
H 20.2228 23.9524 18.7229
O 21.0191 9.25574 27.9719
H 20.6326 8.82893 27.2073
H 20.3038 9.7692 28.3473
O 4.24449 25.9612 32.6014
H 3.52021 25.9329 1.26048
H 3.82374 26.099 31.7527
O 16.205 13.5767 25.0507
H 15.9565 12.8005 25.5527
H 16.4701 14.2156 25.7122
O 13.4405 1.33316 2.92572
H 13.2989 32.3526 2.92064
H 14.2373 1.45937 2.41045
O 1.43366 16.9672 14.3041
H 1.2712 16.2674 14.9367
H 32.5764 17.0518 13.8232
O 13.2161 29.965 7.53608
H 13.5281 29.9085 8.43924
H 13.6783 29.2629 7.07817
O 24.6605 12.9914 30.6848
H 24.2835 12.1346 30.4851
H 25.1989 12.8415 31.4619
O 9.32531 4.86177 18.8123
H 8.8989 4.30747 19.4659
H 8.60381 5.22954 18.302
O 32.1755 32.5755 1.72743
H 31.7951 31.7049 1.84357
H 31.5952 1.04338 1.10195
O 23.4114 16.2552 1.18058
H 24.0912 15.5871 1.09237
H 23.8711 17.0842 1.04795
O 14.1662 16.5752 27.0055
H 13.7406 16.5797 26.1481
H 13.5002 16.2339 27.6022
O 21.6638 3.57566 14.3173
H 22.3104 4.16902 13.935
H 21.2481 4.08819 15.0106
O 20.0265 17.9544 9.18035
H 19.3025 18.467 8.82064
H 20.4637 17.5852 8.41302
O 10.6287 9.90168 8.66329
H 10.2173 9.15593 9.10013
H 11.5366 9.62989 8.52847
O 2.9428 14.8628 11.5831
H 3.58355 14.9588 12.2877
H 3.14408 14.0137 11.1897
O 6.86375 9.03181 23.9227
H 7.17447 8.94636 24.8241
H 6.55125 8.15681 23.6926
O 5.58341 32.5631 20.8859
H 4.83295 32.455 20.3017
H 6.14973 31.8167 20.6897
O 9.44367 10.9757 24.1619
H 9.8563 11.6844 24.6556
H 10.046 10.2374 24.253
O 10.0375 12.1341 7.14265
H 10.2158 11.4089 7.74133
H 10.8153 12.1834 6.58697
O 2.65509 18.6473 6.42119
H 2.44632 18.1918 7.23676
H 2.26486 19.5152 6.52437
O 10.5667 21.0668 22.9724
H 9.9667 20.5668 22.4191
H 9.99532 21.5646 23.5572
O 14.9742 28.2371 6.38018
H 15.6955 28.6144 6.88385
H 15.0084 27.3009 6.57642
O 6.94254 28.4192 19.7031
H 7.00264 28.5177 18.7528
H 7.42956 29.1653 20.0529
O 3.52866 19.7751 20.3853
H 3.28668 19.0678 19.7874
H 3.54059 20.5595 19.8369
O 22.9828 26.8289 17.7181
H 22.6372 27.6051 17.2774
H 22.7549 26.1023 17.1381
O 19.9415 1.78659 26.1897
H 19.2425 2.18507 25.6713
H 20.2223 2.47981 26.7871
O 10.5639 6.60279 15.9438
H 9.97868 6.42659 15.2071
H 10.1831 7.36776 16.3751
O 30.4975 10.5041 8.03055
H 30.9738 10.0226 7.35411
H 30.5586 11.4205 7.7609
O 13.3246 6.34318 31.4702
H 13.2908 5.67744 30.7833
H 13.848 7.05049 31.0934
O 9.82377 24.4236 22.3809
H 9.10357 25.0084 22.6165
H 9.44289 23.8179 21.745
O 30.5058 16.0603 7.54685
H 30.7901 16.4081 6.70161
H 30.4346 15.1162 7.40618
O 23.8444 4.45961 32.3174
H 23.221 3.79463 32.0253
H 24.6584 3.97763 32.4639
O 21.541 11.5163 23.7
H 21.7922 10.7414 23.1973
H 22.0447 12.23 23.3086
O 15.9116 26.5579 2.78372
H 15.1607 26.6114 3.37493
H 16.2641 27.4476 2.76234
O 22.2464 10.904 12.5872
H 22.4376 10.243 11.9218
H 21.3111 11.0814 12.4873
O 9.13194 11.3962 21.2352
H 9.71247 11.9229 21.7846
H 9.59852 10.5688 21.1173
O 14.8716 28.8188 1.34486
H 14.4016 29.3224 2.00948
H 15.7967 28.9719 1.53746
O 20.7026 32.1089 22.4068
H 21.0955 32.0102 23.2741
H 19.7673 32.2183 22.5781
O 28.1902 31.8471 15.0943
H 27.9572 31.9389 16.0182
H 28.417 32.734 14.8147
O 23.5521 17.3933 22.4837
H 23.969 16.6513 22.0456
H 24.2805 17.9516 22.7557
O 32.7267 3.82819 8.02609
H 32.0499 4.44882 8.29622
H 1.58435 4.24942 8.2717
O 10.2711 8.93484 21.6901
H 9.51548 8.46778 21.3336
H 11.0171 8.5992 21.193
O 13.8731 16.5828 12.4285
H 13.3246 16.3185 13.1671
H 13.2586 16.947 11.7914
O 10.3955 12.9843 18.5657
H 11.2747 12.6203 18.6692
H 9.89113 12.6012 19.2833
O 18.7 15.891 5.84612
H 19.4793 16.3156 6.20493
H 18.9723 15.58 4.98275
O 20.862 17.8941 24.2845
H 20.4139 18.2952 25.0291
H 21.793 18.0178 24.4696
O 12.4877 5.384 7.61048
H 12.1649 4.72593 6.99487
H 13.2703 4.98936 7.99509
O 25.4622 26.8726 19.072
H 25.6244 26.0512 19.536
H 24.6544 26.7163 18.5827
O 4.1657 17.3105 26.2061
H 4.65628 16.4918 26.2787
H 4.15683 17.5027 25.2685
O 16.3378 16.6218 2.05942
H 16.9525 17.3538 2.00885
H 15.6098 16.9555 2.58384
O 27.1978 10.2439 30.6271
H 26.3818 9.74353 30.6233
H 27.1142 10.8336 31.3765
O 3.6204 32.2999 32.5103
H 3.24622 1.17265 32.241
H 3.22645 31.6599 31.9174
O 15.5695 2.15768 1.09219
H 14.9662 2.15508 32.3151
H 15.4933 3.03806 1.46009
O 6.6526 22.4102 10.9283
H 6.98411 23.1962 10.4941
H 7.15681 21.693 10.5441
O 27.6404 10.8723 27.995
H 27.5312 10.7866 28.9421
H 28.2488 10.1719 27.7593
O 27.3812 19.8341 14.8776
H 26.6915 20.442 15.1444
H 27.3102 19.7943 13.9239
O 17.745 20.6615 26.8168
H 16.9027 20.6566 27.2714
H 17.7678 21.5039 26.3629
O 19.8195 10.2497 6.77995
H 19.3838 10.8972 7.33427
H 20.2856 9.68263 7.39424
O 9.91402 15.1134 14.9248
H 9.40374 15.7037 15.4793
H 9.27368 14.7389 14.3199
O 22.5288 5.77204 29.5812
H 21.7448 6.28932 29.7657
H 22.23 4.86327 29.6146
O 5.36349 23.0535 3.33287
H 4.46734 23.3467 3.49775
H 5.32103 22.6193 2.48086
O 18.5528 15.2998 31.2719
H 18.6395 16.1917 31.6084
H 18.1702 14.8058 31.9971
O 14.1354 26.7075 12.7669
H 15.078 26.8615 12.7036
H 14.0299 26.1892 13.5647
O 6.93282 8.12952 29.5561
H 7.47093 7.33847 29.5259
H 6.18856 7.89251 30.1094
O 12.1667 19.1035 17.912
H 11.4571 19.0068 18.5471
H 12.9662 19.0554 18.4362
O 18.22 21.3118 3.13936
H 18.3385 20.3719 3.27612
H 18.8875 21.5466 2.49466
O 21.4197 9.62764 4.39251
H 20.6413 9.6466 4.94926
H 21.4819 8.71907 4.0978
O 20.1292 32.127 31.468
H 19.8119 1.0248 31.7311
H 19.7108 31.5211 32.0796
O 1.2719 11.3573 28.5163
H 1.24559 10.6813 27.8391
H 1.78573 12.0657 28.1284
O 11.2122 24.5619 14.758
H 11.1156 23.6804 14.3976
H 12.1471 24.6428 14.9469
O 22.0272 1.28189 18.3528
H 21.0779 1.3706 18.4377
H 22.2996 32.8046 19.1562
O 28.0392 19.4953 8.40459
H 28.3197 18.5815 8.45567
H 27.1505 19.4938 8.76029
O 23.8992 10.6186 29.8713
H 24.3309 10.3519 29.0596
H 23.9842 9.85999 30.4488
O 16.1442 13.2534 2.95788
H 17.0464 12.9662 2.81734
H 16.1978 13.8601 3.69633
O 9.79084 28.1035 5.04143
H 9.83999 27.2306 4.65181
H 10.2935 28.0328 5.85293
O 7.56489 29.8925 26.9525
H 8.20956 29.3986 27.4592
H 7.80969 29.7406 26.0397
O 10.4229 8.04651 29.7738
H 10.3834 7.36374 29.1041
H 10.3657 7.57251 30.6034
O 23.2804 20.0065 15.9538
H 24.0759 20.4915 16.1734
H 22.6241 20.6837 15.7895
O 18.3277 25.045 31.2665
H 19.2639 25.2119 31.3759
H 18.2268 24.8446 30.336
O 20.3555 6.0771 19.3838
H 20.3432 5.4031 18.7043
H 20.9567 6.74314 19.0504
O 32.3076 15.5764 10.8323
H 1.2628 15.5615 11.0918
H 31.8766 16.1009 11.5071
O 10.3381 22.0845 13.3789
H 9.49197 22.1931 13.8131
H 10.3576 22.7742 12.7154
O 18.1042 5.9796 13.7462
H 18.0236 5.51217 14.5776
H 18.7405 6.6729 13.9214
O 20.6357 7.84266 30.4241
H 20.7291 8.25718 29.5664
H 21.1423 8.3988 31.0159
O 31.6422 22.9643 20.652
H 32.3064 22.7538 21.3083
H 32.0682 23.5971 20.0739
O 15.8751 13.6343 20.7924
H 16.4393 14.1046 21.4062
H 16.4115 12.9036 20.4849
O 9.32645 3.13203 26.2142
H 9.92675 2.38741 26.2518
H 9.86437 3.88635 26.4548
O 8.90555 28.0173 1.44414
H 8.84223 28.9311 1.72211
H 9.02676 28.0628 32.4618
O 18.9058 18.5926 12.3236
H 18.9682 18.6134 13.2785
H 18.9517 19.5116 12.0599
O 23.5303 18.5117 29.2145
H 23.7735 17.858 28.5589
H 22.86 18.0813 29.7454
O 8.77394 13.1195 10.1341
H 9.51117 13.4872 9.64679
H 7.9982 13.4714 9.69747
O 15.9932 32.1224 26.8762
H 16.0012 32.3318 27.8102
H 15.3801 31.3913 26.7994
O 2.57183 23.7153 15.3203
H 2.90481 23.1639 16.0283
H 1.67522 23.9256 15.5813
O 22.1461 28.7298 1.48537
H 22.1679 29.478 0.888757
H 22.5528 28.0175 0.99198
O 18.8633 29.926 20.5445
H 18.4048 30.6272 21.0075
H 18.1843 29.2775 20.3582
O 7.84183 8.32752 19.0126
H 7.37453 8.71735 19.7514
H 7.45918 7.45503 18.92
O 11.4952 23.9047 18.3963
H 11.9105 23.3648 17.7238
H 10.9893 24.5524 17.9056
O 8.39558 16.7007 32.6517
H 7.80957 16.5392 1.42506
H 9.26601 16.7645 1.07873
O 31.6752 6.53993 31.1437
H 32.5575 6.20775 30.978
H 31.295 6.6559 30.2729
O 10.4788 30.8005 26.3192
H 10.9037 30.8145 25.4616
H 10.3888 29.8705 26.5272
O 24.0646 13.203 23.0023
H 23.36 13.8503 23.0326
H 24.8646 13.7226 22.9233
O 29.5291 8.78874 27.3683
H 29.629 7.97939 27.8695
H 30.413 8.9923 27.0625
O 7.04048 4.45003 14.8804
H 7.63025 5.03895 14.4097
H 6.90129 4.87559 15.7264
O 1.4869 6.0456 4.88875
H 1.94341 5.20547 4.84396
H 32.5307 5.81226 4.99461
O 10.7079 8.61726 2.31733
H 11.588 8.95123 2.14386
H 10.4436 8.20009 1.49737
O 6.52909 32.2406 2.9007
H 5.94473 32.3418 3.65204
H 6.71543 31.3024 2.86625
O 29.3317 31.4333 20.3741
H 30.2276 31.5782 20.6785
H 28.8663 32.2367 20.6067
O 0.928391 12.6299 23.6785
H 32.0929 12.6502 23.1557
H 1.01657 13.5207 24.0174
O 7.53494 22.594 13.6431
H 7.08758 21.9967 14.2425
H 7.29627 22.2815 12.7704
O 19.8478 5.81737 26.2704
H 18.9411 5.53223 26.1577
H 20.0441 6.31322 25.4755
O 2.05663 17.7741 31.2395
H 2.47254 17.9003 30.3867
H 2.7353 18.0046 31.874
O 9.20386 3.34572 6.27403
H 9.01136 3.25326 5.34096
H 8.55931 2.78717 6.70855
O 13.1949 13.3126 9.65554
H 12.7496 12.6889 10.2291
H 13.562 12.7742 8.95445
O 15.4884 25.4639 30.2256
H 15.5489 25.6205 29.2833
H 14.6346 25.0482 30.3455
O 14.3323 7.2355 25.2796
H 14.239 7.10363 26.2231
H 13.6791 6.65413 24.8903
O 9.78037 29.2872 30.7426
H 8.97376 29.7605 30.5387
H 10.2138 29.1759 29.8964
O 19.6274 26.5389 28.2927
H 20.0816 26.647 27.4571
H 18.7447 26.2583 28.0514
O 27.9846 25.4681 4.0454
H 27.2781 24.8263 4.11723
H 28.2798 25.6018 4.94606
O 25.5311 7.31532 12.0404
H 24.5772 7.24083 12.067
H 25.8333 6.44125 11.7935
O 22.6535 26.6864 31.7284
H 23.4914 26.3455 31.4157
H 22.0646 25.9321 31.7075
O 32.7306 23.044 32.6392
H 1.22044 23.7608 1.11421
H 31.8724 23.0094 1.09567
O 7.9713 2.17281 17.7624
H 7.45342 2.9751 17.6964
H 8.32735 2.18934 18.6507
O 4.95348 8.85632 11.9518
H 5.39782 8.11464 11.5411
H 5.61039 9.5524 11.9648
O 31.9885 5.77688 22.8421
H 31.3696 6.46566 22.5996
H 32.5267 6.16904 23.5297
O 18.1186 16.0597 15.6716
H 17.3476 16.3399 15.1784
H 18.5551 15.4305 15.0974
O 16.1016 23.8444 4.85854
H 15.6412 24.6819 4.80486
H 15.7741 23.4416 5.66273
O 31.163 22.1266 4.80101
H 31.9991 22.0851 4.33677
H 30.7635 21.2695 4.65289
O 14.563 18.524 6.72824
H 14.395 18.1036 5.8849
H 15.3076 19.1027 6.56383
O 16.5745 14.3729 17.4677
H 15.8574 13.8378 17.1278
H 16.9518 14.7891 16.6927
O 14.3308 29.5272 13.8703
H 14.2263 28.7026 13.3956
H 14.5776 30.1618 13.1976
O 11.9813 15.2369 17.8228
H 11.2993 14.5911 18.0074
H 12.7582 14.7149 17.6224
O 9.49939 8.90595 16.8054
H 9.08012 9.57108 16.2595
H 8.99333 8.90844 17.6179
O 22.4656 30.7669 31.6748
H 22.8764 31.4977 32.1367
H 21.6003 31.0942 31.4292
O 2.69236 21.6823 30.6404
H 2.94951 21.1036 29.9227
H 2.70534 22.5596 30.2578
O 30.1552 9.9386 15.399
H 29.5764 9.90015 16.1605
H 30.5654 9.07439 15.3655
O 31.2622 20.6698 22.4055
H 32.0201 21.2545 22.3999
H 31.1805 20.3741 21.4988
O 6.29009 4.8598 21.5793
H 7.12476 5.32833 21.586
H 5.7619 5.30093 22.2446
O 8.50689 1.06603 32.4755
H 8.40498 1.85103 31.9374
H 9.42036 1.08751 32.7607
O 5.8751 18.3914 20.8758
H 5.23573 19.0781 20.6866
H 5.6001 17.6516 20.3342
O 5.62827 14.8697 21.0469
H 5.24442 15.3878 20.3395
H 4.92822 14.2748 21.3158
O 19.2504 1.66483 18.6198
H 19.1844 32.6773 18.6701
H 18.3833 1.97925 18.8757
O 30.7718 10.4412 10.6766
H 30.5985 10.5064 9.7375
H 30.9509 11.3407 10.9507
O 4.41783 17.8151 23.3526
H 4.9392 18.3464 22.7508
H 4.03744 17.1314 22.8012
O 21.1573 14.8117 0.999819
H 21.9385 15.3635 1.03866
H 20.4972 15.2951 1.49671
O 27.7228 26.2161 27.5588
H 27.7457 26.5091 28.4698
H 28.6103 26.3701 27.2348
O 13.806 11.3637 7.62064
H 14.2924 10.5798 7.36535
H 13.2565 11.5627 6.86252
O 11.2034 16.224 6.96899
H 11.6097 17.0737 7.13981
H 11.93 15.6591 6.70602
O 22.1554 3.15384 30.6116
H 21.9014 2.61019 29.8658
H 21.4073 3.10922 31.207
O 19.106 20.8435 22.7914
H 19.6462 21.5588 23.1274
H 18.5899 21.2414 22.0903
O 5.4819 27.4002 9.47692
H 5.71233 28.1444 8.92085
H 4.64634 27.0896 9.12815
O 5.44082 15.1439 16.7608
H 5.10139 15.8941 16.2728
H 4.84167 14.4283 16.5482
O 1.83468 9.20855 30.3675
H 2.24663 9.6441 31.1137
H 1.74325 9.89669 29.7085
O 29.1725 2.7613 29.6578
H 28.6998 2.91641 28.84
H 28.6629 3.22617 30.3214
O 5.15952 8.36865 5.19691
H 4.81758 9.23619 4.98086
H 4.4911 7.98111 5.76193
O 22.1918 20.1247 7.88937
H 21.5171 20.0921 7.21115
H 21.804 19.668 8.63583
O 17.3366 9.1362 8.97214
H 17.0784 9.42943 9.84597
H 18.1898 8.72163 9.10048
O 31.049 15.747 29.8881
H 30.4185 15.6485 29.1747
H 31.8973 15.8188 29.4504
O 30.3601 15.2199 19.6505
H 30.7932 15.906 19.1428
H 31.0347 14.9042 20.2517
O 17.99 12.2363 22.8271
H 17.1217 11.9419 23.102
H 17.9912 12.1254 21.8764
O 2.26444 15.3942 5.69583
H 2.11353 15.7324 6.57848
H 2.65274 16.1288 5.22052
O 22.9071 16.2341 17.8831
H 22.0067 16.534 18.0077
H 23.4472 16.9614 18.1924
O 8.71179 15.1385 19.823
H 8.54995 15.5405 20.6765
H 8.13792 14.3726 19.8057
O 1.18499 23.3082 25.0562
H 1.3843 23.1304 24.137
H 1.91936 22.9286 25.5388
O 32.3389 29.1283 8.78229
H 32.4671 29.2606 9.7216
H 1.23255 29.2971 8.39666
O 24.5199 9.13024 18.7641
H 24.4509 10.0848 18.7472
H 23.6134 8.8246 18.7966
O 13.0678 14.4894 6.12777
H 13.6507 14.7672 5.42114
H 12.8717 13.5734 5.93107
O 26.3652 20.1221 6.13978
H 25.8947 19.2995 6.00457
H 27.1149 19.8829 6.68464
O 20.8065 17.0486 15.6296
H 19.972 16.5878 15.5432
H 20.861 17.5955 14.8459
O 21.7097 12.1095 26.8094
H 21.472 11.393 27.3979
H 22.4915 11.7968 26.3542
O 22.8397 11.4272 2.8343
H 22.3538 10.7372 3.28596
H 23.7387 11.3331 3.14918
O 19.7553 14.3895 14.2483
H 19.0969 13.9994 13.6735
H 19.8781 13.7447 14.9449
O 4.85392 13.0689 30.0928
H 4.37357 12.7434 29.3315
H 4.18081 13.2116 30.7582
O 7.56406 11.1822 6.25048
H 6.75205 11.4232 6.69633
H 8.25736 11.5448 6.80192
O 27.1125 12.1501 25.1173
H 27.8531 11.6337 24.7995
H 27.2972 12.2881 26.0464
O 22.7981 24.7764 8.22051
H 23.0377 23.9343 8.60737
H 22.2848 25.2148 8.89909
O 2.32245 13.2081 19.0087
H 2.76622 13.5642 18.2389
H 2.30856 12.2623 18.8616
O 30.2894 30.9254 12.2214
H 30.5012 31.8405 12.4055
H 30.8211 30.4266 12.8416
O 28.5155 2.63872 14.1336
H 27.7057 2.841 14.6021
H 28.2495 2.55963 13.2175
O 10.8719 11.1384 13.4983
H 11.5609 11.1755 14.1616
H 10.6368 10.2119 13.448
O 18.3882 18.2158 3.82304
H 18.2493 17.4689 4.40534
H 19.2276 18.0368 3.39921
O 19.9039 19.9922 6.46239
H 19.9396 20.9401 6.33439
H 20.0355 19.6268 5.58754
O 4.46469 12.7727 24.7742
H 4.81064 12.0413 25.2856
H 3.78879 12.3805 24.2214
O 17.1241 9.75901 11.8485
H 17.3838 8.86117 12.0551
H 17.94 10.2585 11.8816
O 32.5318 26.3227 9.13728
H 32.7445 27.2528 9.06048
H 1.27974 25.875 8.68335
O 26.1284 22.8259 7.85492
H 25.3096 22.9847 8.32452
H 26.773 23.3718 8.30509
O 11.7818 3.20301 5.46455
H 10.826 3.19147 5.51572
H 12.0523 2.36432 5.83828
O 26.5543 31.0259 26.7081
H 26.7585 30.1032 26.5557
H 26.5788 31.1231 27.66
O 3.92658 29.2038 11.7722
H 4.36758 28.8932 10.9814
H 4.57338 29.0892 12.4684
O 20.2091 3.49545 23.6468
H 20.1608 2.93781 22.8703
H 19.296 3.6763 23.8696
O 17.4306 27.801 19.589
H 17.6602 27.1672 20.2686
H 17.7978 27.4341 18.7847
O 18.3039 24.5248 11.265
H 18.8405 24.3566 10.4904
H 18.9158 24.4643 11.9986
O 9.19053 11.8785 16.3245
H 9.72494 12.3189 15.6637
H 9.41476 12.3166 17.1455
O 8.47306 16.1561 17.029
H 8.81305 15.7796 17.8407
H 7.65077 15.6911 16.8747
O 14.9698 32.7251 16.2154
H 15.7417 1.26833 15.9685
H 14.9559 32.7588 17.1719
O 15.7233 8.22327 14.1717
H 16.4712 7.65197 14.3462
H 15.2868 8.31263 15.0189
O 13.0019 26.8175 17.1153
H 13.4678 26.0796 16.722
H 13.6693 27.2803 17.6219
O 21.6469 14.5913 22.5643
H 20.8816 14.9692 22.9975
H 21.3024 13.8411 22.0799
O 26.0137 24.8062 20.8362
H 25.1024 24.5453 20.703
H 25.9987 25.3306 21.6369
O 18.6586 23.4308 8.32296
H 17.8783 22.8958 8.46804
H 18.3203 24.2663 8.00077
O 14.6187 25.2724 19.0998
H 14.6326 26.1585 18.7379
H 15.3657 25.2458 19.6978
O 25.7454 8.49162 4.63147
H 25.6872 8.01086 3.80581
H 24.8544 8.47698 4.98101
O 29.1813 15.3821 23.4582
H 28.9277 15.9599 22.7385
H 28.7543 14.5488 23.2589
O 8.49009 2.71865 20.3179
H 9.08547 2.00793 20.5559
H 7.70656 2.56197 20.845
O 26.1965 15.4792 17.6032
H 26.4847 16.0353 16.8794
H 25.695 16.0646 18.1707
O 23.6802 10.7803 8.32463
H 24.5242 11.2318 8.31717
H 23.617 10.4042 9.20257
O 29.7254 27.4559 23.8986
H 30.6408 27.4294 23.6202
H 29.6971 26.9077 24.6828
O 29.8813 7.39333 21.7371
H 29.94 7.62137 20.8093
H 29.0034 7.67195 21.9977
O 11.3429 21.7753 5.62178
H 12.1752 22.0171 6.02799
H 10.8707 22.603 5.53092
O 22.6872 24.0018 29.3286
H 22.1209 24.1831 30.0787
H 22.0874 23.9347 28.5857
O 29.5169 6.47883 29.2056
H 29.3561 5.60864 28.8407
H 29.1524 6.43936 30.0898
O 27.9174 16.9739 9.58907
H 27.6754 16.3868 8.8729
H 28.8655 16.8727 9.67249
O 13.6461 23.1821 30.9804
H 12.9384 22.6304 30.6471
H 14.4337 22.6468 30.8835
O 6.9579 31.077 6.24006
H 7.2485 30.3151 5.73877
H 6.25175 31.4543 5.71545
O 24.5343 31.0471 8.50335
H 25.3966 30.8624 8.13114
H 24.2952 31.901 8.14288
O 14.5405 10.1704 10.2067
H 13.786 10.6418 10.5598
H 15.2222 10.2773 10.87
O 19.0542 10.8107 14.3853
H 19.5955 11.2262 15.0566
H 19.6542 10.2278 13.92
O 3.02011 12.6586 21.5386
H 2.25912 12.1976 21.8916
H 2.80781 12.8009 20.6161
O 21.3213 17.8161 4.14745
H 21.1154 18.1664 3.28078
H 22.0482 17.2121 3.99568
O 13.497 8.24409 12.358
H 12.8399 8.54828 12.984
H 14.3326 8.36699 12.8083
O 28.3926 22.5598 5.68057
H 28.4461 21.6297 5.46092
H 28.3601 22.579 6.63702
O 5.92082 22.7373 16.602
H 5.09363 22.7235 17.0834
H 5.88487 21.9625 16.041
O 12.2172 22.6312 21.0609
H 11.6054 22.234 20.441
H 11.9994 22.2311 21.9028
O 9.51754 7.69869 9.7776
H 9.38912 6.75531 9.67873
H 8.8385 7.9699 10.3953
O 5.64055 26.4232 12.5722
H 5.69344 25.6674 13.1572
H 5.54634 27.1742 13.1582
O 25.5072 26.2402 23.1144
H 25.5714 27.1848 23.2553
H 25.7068 25.8561 23.9681
O 25.4241 3.20351 17.0545
H 24.5801 3.50638 17.3894
H 26.0708 3.60649 17.6338
O 25.7934 9.27088 13.8699
H 25.6411 8.61317 13.1913
H 26.1743 10.0142 13.4024
O 15.6422 13.9801 7.80756
H 16.0021 13.0933 7.79057
H 15.2923 14.114 6.92672
O 15.9039 17.2327 24.3261
H 16.1852 18.1439 24.2439
H 16.2423 16.9528 25.1766
O 16.9982 32.8067 8.08966
H 16.1098 1.07643 8.3567
H 16.9049 32.504 7.18638
O 13.8988 19.3104 13.9842
H 13.7421 18.7331 14.7315
H 13.8828 18.7287 13.2242
O 14.1727 30.016 20.4643
H 14.4291 30.7938 19.9688
H 14.6679 30.0778 21.2811
O 9.83813 14.895 4.52339
H 10.6367 14.8641 3.99653
H 10.1246 15.2275 5.37407
O 21.1693 20.7898 29.8419
H 21.6632 21.3543 30.4366
H 21.5681 20.9375 28.9843
O 11.7885 4.15452 17.9108
H 11.8341 3.22053 18.1153
H 10.8992 4.41055 18.1554
O 27.4176 2.62631 7.12774
H 26.9386 2.62441 7.95644
H 28.3399 2.62537 7.38371
O 18.8584 28.1124 10.8569
H 18.2267 28.2418 10.1495
H 19.1105 28.9979 11.1185
O 29.6031 26.6993 12.9127
H 30.5052 26.6539 12.5959
H 29.2581 27.5102 12.539
O 31.9719 18.8543 28.4187
H 32.2915 18.0683 27.9756
H 32.7041 19.4693 28.3743
O 26.5573 6.65145 2.37786
H 26.8356 6.00059 3.02219
H 25.6318 6.45927 2.22697
O 30.2566 6.53965 2.05051
H 30.5803 6.3225 2.92476
H 30.5295 5.8029 1.50374
O 24.8093 15.4849 20.8657
H 24.7623 16.2177 20.2517
H 24.0956 14.9043 20.6016
O 32.4257 17.0167 24.1915
H 32.6236 17.1143 25.1229
H 1.12124 16.4051 23.8683
O 4.81192 15.4856 13.2823
H 5.29793 15.7221 12.4923
H 5.25399 14.7027 13.6107
O 1.46399 15.3893 20.0792
H 1.31193 15.9792 19.3408
H 1.63114 14.5376 19.6755
O 4.37888 18.0116 10.0702
H 3.67431 17.4555 9.73762
H 3.94357 18.8265 10.3206
O 4.77561 4.52032 11.1431
H 4.29648 3.90163 11.6943
H 5.24626 3.96964 10.5174
O 17.5562 28.7593 2.79873
H 17.9861 29.0371 1.98993
H 17.5908 29.5296 3.36581
O 2.58019 2.92676 25.706
H 1.78562 2.39952 25.7891
H 2.32054 3.80004 25.9995
O 19.9145 15.97 28.4925
H 20.6191 15.5504 27.999
H 19.7167 16.7659 27.9989
O 16.8883 9.01603 26.3293
H 16.7334 8.71876 25.4328
H 17.005 8.21019 26.8326
O 6.53296 27.6357 16.9001
H 7.06065 27.4822 16.1164
H 6.13981 28.4971 16.7598
O 2.49959 28.1262 27.8936
H 1.84815 27.5924 28.3485
H 2.12144 29.0054 27.8789
O 24.0869 5.27418 2.8972
H 23.8248 4.83711 2.08693
H 23.4752 6.00533 2.98411
O 0.951709 27.7271 31.7874
H 32.6179 28.441 32.3501
H 1.43495 27.1457 32.3744
O 4.84722 32.3384 5.0903
H 3.97141 32.2153 4.72419
H 4.77335 1.15959 5.62972
O 8.84286 14.9452 25.859
H 9.45713 14.2777 25.5536
H 8.27753 14.4852 26.4795
O 11.5305 17.4822 32.0345
H 11.7608 16.734 32.5853
H 12.2052 17.4972 31.3557
O 17.8312 3.7471 25.6121
H 17.1533 3.47114 24.9953
H 17.3908 3.76211 26.4618
O 30.7046 28.3984 19.74
H 30.2341 27.686 20.1727
H 31.1237 28.8781 20.4545
O 31.1017 27.7583 4.78241
H 30.972 26.9788 4.24229
H 31.3641 28.4388 4.16251
O 30.6641 1.68459 18.5308
H 30.929 2.10258 17.7115
H 31.0278 32.7668 18.4779
O 5.47534 24.7227 25.5791
H 4.96119 25.4826 25.8519
H 5.00654 23.9722 25.9442
O 31.2454 4.24204 13.5026
H 31.4682 5.14022 13.7472
H 30.9636 4.30474 12.5899
O 2.66473 28.4113 3.41107
H 2.29023 27.5542 3.20736
H 2.09814 29.0349 2.95681
O 26.5762 27.8342 16.7277
H 26.0517 28.619 16.5684
H 26.3387 27.5628 17.6143
O 29.5248 12.7886 28.4058
H 30.024 12.4544 29.151
H 28.7596 12.2159 28.3534
O 27.3447 12.7167 16.7961
H 27.4585 13.1109 15.9313
H 27.1682 13.4574 17.3761
O 7.55723 10.5187 9.99964
H 7.09735 11.1169 10.5886
H 8.22984 11.0594 9.58555
O 30.6621 23.3888 26.3692
H 31.486 23.0986 25.9777
H 30.8649 24.2434 26.7495
O 18.2902 17.9718 17.9143
H 18.2079 17.9466 16.961
H 18.3528 18.9033 18.1252
O 23.08 14.1868 15.8114
H 23.7183 13.7288 16.3583
H 22.2713 13.6855 15.9155
O 16.3113 0.920075 29.4377
H 16.8993 1.59846 29.1057
H 15.6796 1.39386 29.9787
O 26.2343 15.453 29.612
H 25.6708 15.8468 28.946
H 25.6486 14.8926 30.1211
O 32.3123 3.42261 20.6067
H 32.2023 4.36435 20.4754
H 31.9537 3.02607 19.8127
O 1.06296 2.2487 5.76367
H 32.7506 2.92142 6.38508
H 32.3861 2.2948 5.05601
O 18.1939 7.46866 1.21005
H 17.5712 6.79038 0.948612
H 18.8404 7.00772 1.74471
O 6.67214 6.05248 26.7819
H 7.51388 6.49119 26.6585
H 6.0927 6.73555 27.1194
O 30.3339 22.9773 14.8043
H 30.1138 23.4559 14.0051
H 30.3456 22.0579 14.538
O 1.29395 29.695 11.3179
H 32.7188 29.3771 12.0406
H 2.19308 29.6041 11.6334
O 1.37553 7.45633 28.2818
H 1.14093 8.05555 27.5732
H 1.48389 8.02066 29.0473
O 19.2142 28.3285 23.5052
H 19.9361 28.0421 24.0648
H 18.4351 28.2392 24.0541
O 21.9992 7.03092 2.97741
H 21.2915 6.4063 2.81861
H 22.0885 7.50741 2.15205
O 13.1192 18.2294 29.6737
H 13.9107 18.0678 30.1872
H 13.4211 18.7377 28.9209
O 27.291 4.40334 18.7414
H 27.1303 5.04233 19.4357
H 27.6387 3.6365 19.1967
O 26.0757 18.2564 23.7397
H 26.4649 18.9656 23.2281
H 25.6336 18.6982 24.4647
O 13.7107 25.8529 0.844165
H 14.4737 25.8718 1.4218
H 13.086 26.4527 1.25192
O 29.0764 30.5591 23.1013
H 29.0147 30.7696 22.1696
H 28.6861 31.3127 23.544
O 11.0655 2.56137 22.2352
H 10.8946 1.98466 21.4906
H 11.9344 2.92412 22.0633
O 27.1969 15.4342 7.38712
H 26.4129 15.0962 6.9542
H 27.901 14.8555 7.09469
O 16.9214 22.276 21.5238
H 16.9493 21.5722 20.8757
H 17.0269 23.0779 21.0119
O 14.2355 21.7696 25.059
H 14.9601 21.1498 24.9754
H 13.4487 21.2263 25.0153
O 8.16281 31.384 17.3017
H 8.16749 32.3378 17.3823
H 7.34734 31.1861 16.8412
O 12.1467 31.7315 15.6236
H 11.4167 31.1172 15.7011
H 12.0519 32.3132 16.3779
O 29.9162 16.7711 26.3976
H 29.7271 17.6649 26.6833
H 29.1435 16.2683 26.6553
O 15.9991 21.4923 30.8282
H 16.0321 20.7565 31.4395
H 15.8629 21.0869 29.9718
O 9.40626 25.7148 8.12235
H 9.09892 26.5777 8.40017
H 10.2021 25.8933 7.62136
O 18.3803 26.0389 7.53721
H 17.8887 26.004 6.71662
H 17.8564 26.6021 8.10697
O 26.0509 28.6713 23.326
H 25.9941 28.6757 24.2815
H 25.3771 29.2893 23.0426
O 29.4973 7.98698 19.0702
H 30.1598 7.61894 18.4855
H 28.9697 8.55431 18.508
O 6.85773 18.314 29.0636
H 7.32444 18.6176 28.285
H 7.20133 18.8543 29.7752
O 29.7992 3.71976 22.4313
H 30.2619 4.5467 22.296
H 30.4943 3.07237 22.5494
O 24.1341 18.8874 32.3149
H 23.3417 18.9037 0.885577
H 24.8518 18.8542 0.981278
O 4.06256 7.51258 30.8328
H 3.33045 8.10142 30.6497
H 3.66901 6.64034 30.8559
O 16.7179 20.1496 24.2293
H 17.4606 20.4879 23.7292
H 17.0868 19.9223 25.0828
O 5.64699 24.0113 19.7917
H 5.16562 23.5092 19.1341
H 5.88918 23.3663 20.4562
O 15.0737 8.71067 3.24066
H 15.8879 9.17533 3.04732
H 14.5465 8.81016 2.44792
O 3.28196 12.9964 3.27779
H 3.25625 13.0022 2.32096
H 3.37788 12.0726 3.50964
O 29.8226 31.4998 29.5145
H 29.7822 31.2821 28.5832
H 29.7691 30.6548 29.9609
O 14.3499 0.945592 21.8978
H 13.6379 32.307 22.1069
H 14.4422 0.888018 20.9468
O 23.6769 21.7967 30.8136
H 23.8095 22.0807 31.7181
H 23.6849 22.6069 30.304
O 16.4709 24.0039 1.29864
H 16.5055 24.6675 1.98758
H 15.91 23.3157 1.65628
O 18.5776 26.844 4.38528
H 18.2185 27.4502 3.73741
H 19.2498 27.3505 4.8412
O 19.7386 32.3193 8.68875
H 18.7995 32.5015 8.72336
H 20.071 0.935331 8.00544
O 4.26707 7.95511 2.49142
H 3.31918 7.96739 2.62401
H 4.63338 7.97951 3.37542
O 26.9661 22.7667 30.8978
H 26.9735 21.8143 30.8015
H 26.3411 22.9316 31.6037
O 22.3086 24.5459 11.4002
H 21.8851 23.9487 10.7836
H 23.2224 24.5754 11.1165
O 13.4599 24.8471 10.8839
H 13.7631 25.4197 11.5885
H 13.551 23.9623 11.2377
O 16.3318 21.8928 8.8529
H 15.6545 22.2402 8.27258
H 15.9001 21.8102 9.70318
O 1.85871 9.54384 10.123
H 1.85129 10.425 10.4968
H 1.02424 9.16113 10.3939
O 29.0199 11.2021 2.56368
H 29.6377 10.7115 2.02157
H 28.2013 11.1874 2.06782
O 19.0558 13.4588 18.6174
H 19.5564 13.0645 17.9032
H 18.432 14.0392 18.1813
O 20.3851 23.679 27.6032
H 19.9727 23.8585 28.4482
H 19.6621 23.6906 26.9761
O 2.79001 30.1929 7.75115
H 3.70363 29.9808 7.94232
H 2.65331 29.8808 6.85662
O 12.378 27.2113 9.80833
H 12.6929 26.322 9.97012
H 13.1381 27.769 9.97428
O 27.5142 17.0725 31.4896
H 27.522 17.968 31.1516
H 27.0939 16.5592 30.7996
O 1.07053 14.6273 15.6608
H 32.2913 14.337 16.1867
H 1.04863 14.0681 14.8842
O 4.87827 23.6291 12.8314
H 5.68954 23.2287 12.5187
H 4.81939 23.3662 13.7499
O 6.84017 15.3826 30.1757
H 6.41406 15.7082 29.3829
H 7.66967 15.8586 30.2152
O 15.0121 19.2765 19.1651
H 15.844 19.7133 19.3478
H 14.4823 19.4325 19.947
O 2.97233 25.3858 5.40032
H 3.68549 25.8742 4.98909
H 3.07001 25.5609 6.33629
O 10.5882 31.579 4.96427
H 11.4953 31.7795 5.1949
H 10.6235 31.3383 4.03852
O 31.2861 10.25 19.7853
H 30.7345 9.52903 19.4818
H 31.0149 10.9993 19.255
O 10.3245 28.361 28.1124
H 9.93637 27.5477 28.4351
H 11.1658 28.0948 27.7416
O 25.7973 23.8445 4.56327
H 25.1518 24.5357 4.4152
H 25.7583 23.3064 3.77263
O 13.5204 19.2337 27.0933
H 13.7082 18.296 27.0535
H 12.696 19.3337 26.6172
O 6.87926 10.9008 2.63575
H 6.80657 11.8508 2.54357
H 6.20467 10.5509 2.05374
O 24.523 27.0773 7.24901
H 24.4666 26.8636 6.31767
H 23.8522 26.5328 7.66116
O 7.56974 29.0381 11.0718
H 7.10665 29.8616 10.918
H 7.96187 29.1417 11.9388
O 4.85304 2.8143 28.4253
H 5.50337 2.34567 28.9484
H 4.15009 3.01777 29.0423
O 1.73508 7.2943 24.6797
H 2.27089 7.55042 23.929
H 1.33914 8.11166 24.9819
O 11.4886 22.5296 27.7306
H 11.1184 23.0546 28.4403
H 12.3127 22.9657 27.5142
O 20.9994 27.337 19.5701
H 21.2248 27.6293 20.4533
H 21.8375 27.297 19.1094
O 31.206 30.503 24.9033
H 31.9898 30.3438 24.3775
H 30.4853 30.4759 24.274
O 11.5498 19.1394 7.2129
H 12.4501 19.4206 7.37561
H 11.0573 19.4627 7.96733
O 23.4331 7.11289 27.0777
H 22.8574 7.87765 27.0765
H 23.0919 6.55677 27.7781
O 21.7412 25.4211 3.10281
H 21.8944 25.2371 2.17605
H 20.85 25.1116 3.2648
O 6.01463 32.0083 14.0991
H 6.45152 31.2017 13.8258
H 5.62068 31.7933 14.9446
O 4.42134 17.5325 15.9805
H 3.83086 17.8883 16.6446
H 4.84338 18.3017 15.5977
O 28.3062 10.058 17.5484
H 27.942 10.8975 17.2677
H 27.7327 9.40265 17.1511
O 25.0734 3.91551 6.50413
H 26.0214 3.78678 6.53359
H 24.935 4.77315 6.90606
O 24.5309 10.4718 22.1037
H 25.3122 10.4611 21.5508
H 24.336 11.401 22.2256
O 3.82695 13.8351 8.45752
H 3.42203 13.1905 9.03787
H 3.24926 14.5968 8.50468
O 13.7145 9.86385 24.9914
H 14.0002 8.98401 25.2374
H 12.8444 9.73673 24.6133
O 19.0676 27.0811 17.5451
H 19.8238 27.0914 18.1318
H 19.2088 27.8243 16.9586
O 30.803 6.40967 5.11369