LAMMPS (22 Aug 2018)
Reading data file ...
  orthogonal box = (0 0 0) to (33.6962 33.6962 33.6962)
  4 by 4 by 8 MPI processor grid
  reading atoms ...
  3152 atoms
  scanning bonds ...
  2 = max bonds/atom
  scanning angles ...
  1 = max angles/atom
  reading bonds ...
  2000 bonds
  reading angles ...
  1000 angles
Finding 1-2 1-3 1-4 neighbors ...
  special bond factors lj:   0          0          0         
  special bond factors coul: 0          0          0         
  2 = max # of 1-2 neighbors
  1 = max # of 1-3 neighbors
  1 = max # of 1-4 neighbors
  2 = max # of special neighbors
Setting atom values ...
  1000 settings made for charge
Setting atom values ...
  2000 settings made for charge
Setting atom values ...
  76 settings made for charge
Setting atom values ...
  76 settings made for charge
1000 atoms in group wat
76 atoms in group Na
76 atoms in group Cl
PPPM initialization ...
  extracting TIP4P info from pair style
  using 12-bit tables for long-range coulomb (../kspace.cpp:321)
  G vector (1/distance) = 0.311414
  grid = 32 32 32
  stencil order = 5
  estimated absolute RMS force accuracy = 0.0032261
  estimated relative force accuracy = 9.71531e-06
  using double precision FFTs
  3d grid and FFT values/proc = 2475 256
Neighbor list info ...
  update every 1 steps, delay 0 steps, check yes
  max neighbors/atom: 2000, page size: 100000
  master list distance cutoff = 12.3092
  ghost atom cutoff = 12.3092
  binsize = 6.1546, bins = 6 6 6
  1 neighbor lists, perpetual/occasional/extra = 1 0 0
  (1) pair lj/cut/tip4p/long, perpetual
      attributes: half, newton on
      pair build: half/bin/newton
      stencil: half/bin/3d/newton
      bin: standard
Setting up cg style minimization ...
  Unit style    : real
  Current step  : 0
Per MPI rank memory allocation (min/avg/max) = 8.192 | 8.248 | 8.723 Mbytes
Step Temp E_pair E_mol TotEng Press 
       0            0    713.02913 3.2938476e-05    713.02916     22449.95 
    1000            0   -22977.705    376.01957   -22601.685   -4850.9217 
Loop time of 1.39883 on 128 procs for 1000 steps with 3152 atoms

98.9% CPU use with 128 MPI tasks x no OpenMP threads

Minimization stats:
  Stopping criterion = max iterations
  Energy initial, next-to-last, final = 
         713.029160003     -22601.5871855     -22601.6854384
  Force two-norm initial, final = 1835.69 20.4042
  Force max component initial, final = 225.604 4.36606
  Final line search alpha, max atom move = 0.00506656 0.0221209
  Iterations, force evaluations = 1000 1770

MPI task timing breakdown:
Section |  min time  |  avg time  |  max time  |%varavg| %total
---------------------------------------------------------------
Pair    | 0.15239    | 0.34628    | 0.54589    |  13.9 | 24.76
Bond    | 0.00091094 | 0.0015851  | 0.002178   |   0.6 |  0.11
Kspace  | 0.59946    | 0.79583    | 0.9807     |   9.3 | 56.89
Neigh   | 0.0059669  | 0.0061145  | 0.0062347  |   0.1 |  0.44
Comm    | 0.15092    | 0.17113    | 0.19269    |   2.4 | 12.23
Output  | 9.2793e-05 | 9.5781e-05 | 0.00010009 |   0.0 |  0.01
Modify  | 0          | 0          | 0          |   0.0 |  0.00
Other   |            | 0.07779    |            |       |  5.56

Nlocal:    24.625 ave 37 max 9 min
Histogram: 2 4 5 17 11 33 25 17 13 1
Nghost:    2564.34 ave 2645 max 2508 min
Histogram: 6 19 36 23 12 1 3 8 11 9
Neighs:    7967.29 ave 12856 max 2526 min
Histogram: 2 5 11 15 29 19 20 16 7 4

Total # of neighbors = 1019813
Ave neighs/atom = 323.545
Ave special neighs/atom = 1.90355
Neighbor list builds = 19
Dangerous builds = 0
Finding SHAKE clusters ...
  0 = # of size 2 clusters
  0 = # of size 3 clusters
  0 = # of size 4 clusters
  1000 = # of frozen angles
PPPM initialization ...
  extracting TIP4P info from pair style
  using 12-bit tables for long-range coulomb (../kspace.cpp:321)
  G vector (1/distance) = 0.311414
  grid = 32 32 32
  stencil order = 5
  estimated absolute RMS force accuracy = 0.0032261
  estimated relative force accuracy = 9.71531e-06
  using double precision FFTs
  3d grid and FFT values/proc = 2475 256
Setting up Verlet run ...
  Unit style    : real
  Current step  : 0
  Time step     : 0.001
Per MPI rank memory allocation (min/avg/max) = 7.943 | 8.088 | 8.207 Mbytes
Step Temp E_pair E_mol TotEng Press Volume 
       0    436.54021   -22977.705            0    -20178.73   -1351409.3    38259.716 
   10000    175.75953   -21352.244            0   -20225.323    1409.3972    38030.112 
Loop time of 8.89251 on 128 procs for 10000 steps with 3152 atoms

Performance: 0.097 ns/day, 247.014 hours/ns, 1124.542 timesteps/s
99.4% CPU use with 128 MPI tasks x no OpenMP threads

MPI task timing breakdown:
Section |  min time  |  avg time  |  max time  |%varavg| %total
---------------------------------------------------------------
Pair    | 0.71038    | 2.3113     | 3.6732     |  41.6 | 25.99
Bond    | 0.00090887 | 0.0011063  | 0.0019609  |   0.5 |  0.01
Kspace  | 3.0742     | 4.4061     | 5.9402     |  30.2 | 49.55
Neigh   | 0          | 0          | 0          |   0.0 |  0.00
Comm    | 0.80538    | 0.9233     | 1.0512     |   6.1 | 10.38
Output  | 8.9377e-05 | 9.2855e-05 | 9.6792e-05 |   0.0 |  0.00
Modify  | 1.0756     | 1.1438     | 1.1918     |   2.3 | 12.86
Other   |            | 0.1069     |            |       |  1.20

Nlocal:    24.625 ave 36 max 9 min
Histogram: 2 4 4 13 15 36 17 19 12 6
Nghost:    2563.81 ave 2648 max 2510 min
Histogram: 10 27 31 21 7 0 4 6 13 9
Neighs:    7968.02 ave 12409 max 2514 min
Histogram: 3 3 9 15 22 24 22 11 13 6

Total # of neighbors = 1019906
Ave neighs/atom = 323.574
Ave special neighs/atom = 1.90355
Neighbor list builds = 0
Dangerous builds = 0
PPPM initialization ...
  extracting TIP4P info from pair style
  using 12-bit tables for long-range coulomb (../kspace.cpp:321)
  G vector (1/distance) = 0.311557
  grid = 32 32 32
  stencil order = 5
  estimated absolute RMS force accuracy = 0.00320693
  estimated relative force accuracy = 9.65756e-06
  using double precision FFTs
  3d grid and FFT values/proc = 2475 256
Setting up Verlet run ...
  Unit style    : real
  Current step  : 10000
  Time step     : 0.01
Per MPI rank memory allocation (min/avg/max) = 7.943 | 8.088 | 8.207 Mbytes
Step Temp E_pair E_mol TotEng Press Volume 
   10000    175.75953   -21352.243            0   -20225.322   -98870.225    38030.112 
   20000    298.03124   -20187.301            0   -18276.407   -908.93624    38054.651 
Loop time of 9.01495 on 128 procs for 10000 steps with 3152 atoms

Performance: 0.958 ns/day, 25.042 hours/ns, 1109.268 timesteps/s
99.4% CPU use with 128 MPI tasks x no OpenMP threads

MPI task timing breakdown:
Section |  min time  |  avg time  |  max time  |%varavg| %total
---------------------------------------------------------------
Pair    | 0.71199    | 2.2977     | 3.6656     |  40.3 | 25.49
Bond    | 0.00092762 | 0.0010997  | 0.0020979  |   0.5 |  0.01
Kspace  | 3.1669     | 4.5072     | 6.0279     |  28.8 | 50.00
Neigh   | 0.0015187  | 0.0015583  | 0.001608   |   0.0 |  0.02
Comm    | 0.82273    | 0.94228    | 1.0881     |   6.4 | 10.45
Output  | 8.3997e-05 | 8.7967e-05 | 9.1712e-05 |   0.0 |  0.00
Modify  | 1.0613     | 1.1412     | 1.1834     |   2.4 | 12.66
Other   |            | 0.1238     |            |       |  1.37

Nlocal:    24.625 ave 37 max 9 min
Histogram: 3 3 1 12 20 38 23 21 5 2
Nghost:    2579.22 ave 2653 max 2527 min
Histogram: 6 20 31 35 4 0 0 4 17 11
Neighs:    7993.58 ave 13636 max 2563 min
Histogram: 5 2 7 20 35 27 18 10 2 2

Total # of neighbors = 1023178
Ave neighs/atom = 324.612
Ave special neighs/atom = 1.90355
Neighbor list builds = 5
Dangerous builds = 0
PPPM initialization ...
  extracting TIP4P info from pair style
  using 12-bit tables for long-range coulomb (../kspace.cpp:321)
  G vector (1/distance) = 0.311542
  grid = 32 32 32
  stencil order = 5
  estimated absolute RMS force accuracy = 0.00320898
  estimated relative force accuracy = 9.66374e-06
  using double precision FFTs
  3d grid and FFT values/proc = 2475 256
Setting up Verlet run ...
  Unit style    : real
  Current step  : 20000
  Time step     : 0.1
Per MPI rank memory allocation (min/avg/max) = 7.943 | 8.094 | 8.207 Mbytes
Step Temp E_pair E_mol TotEng Press Volume 
   20000    298.03124   -20187.301            0   -18276.407   -21004.196    38054.651 
   30000    299.31791    -20366.03            0   -18446.887    294.72307    33252.032 
Loop time of 10.1605 on 128 procs for 10000 steps with 3152 atoms

Performance: 8.504 ns/day, 2.822 hours/ns, 984.208 timesteps/s
99.4% CPU use with 128 MPI tasks x no OpenMP threads

MPI task timing breakdown:
Section |  min time  |  avg time  |  max time  |%varavg| %total
---------------------------------------------------------------
Pair    | 0.85979    | 2.5981     | 4.0149     |  29.2 | 25.57
Bond    | 0.0009074  | 0.0011289  | 0.0020801  |   0.6 |  0.01
Kspace  | 3.7234     | 5.1547     | 6.827      |  20.6 | 50.73
Neigh   | 0.01515    | 0.015444   | 0.015756   |   0.1 |  0.15
Comm    | 0.91594    | 1.036      | 1.1504     |   5.4 | 10.20
Output  | 9.7733e-05 | 9.977e-05  | 0.00010542 |   0.0 |  0.00
Modify  | 1.1494     | 1.2282     | 1.2847     |   2.8 | 12.09
Other   |            | 0.1268     |            |       |  1.25

Nlocal:    24.625 ave 32 max 15 min
Histogram: 2 0 13 8 25 30 14 21 6 9
Nghost:    2865.13 ave 2902 max 2828 min
Histogram: 8 6 5 21 22 18 24 14 8 2
Neighs:    9093.09 ave 12994 max 4654 min
Histogram: 2 2 7 22 22 28 22 13 6 4

Total # of neighbors = 1163915
Ave neighs/atom = 369.262
Ave special neighs/atom = 1.90355
Neighbor list builds = 48
Dangerous builds = 0
PPPM initialization ...
  extracting TIP4P info from pair style
  using 12-bit tables for long-range coulomb (../kspace.cpp:321)
  G vector (1/distance) = 0.310141
  grid = 30 30 30
  stencil order = 5
  estimated absolute RMS force accuracy = 0.00374669
  estimated relative force accuracy = 1.12831e-05
  using double precision FFTs
  3d grid and FFT values/proc = 2475 256
Setting up Verlet run ...
  Unit style    : real
  Current step  : 30000
  Time step     : 0.2
Per MPI rank memory allocation (min/avg/max) = 7.949 | 8.163 | 8.217 Mbytes
Step Temp E_pair E_mol TotEng Press Volume 
   30000    299.31791   -20366.022            0   -18446.879   -2323.1343    33252.032 
   40000    301.13616   -20498.603            0   -18567.801    932.49342    32483.852 
Loop time of 10.143 on 128 procs for 10000 steps with 3152 atoms

Performance: 17.036 ns/day, 1.409 hours/ns, 985.900 timesteps/s
99.4% CPU use with 128 MPI tasks x no OpenMP threads

MPI task timing breakdown:
Section |  min time  |  avg time  |  max time  |%varavg| %total
---------------------------------------------------------------
Pair    | 1.7592     | 2.7537     | 3.662      |  21.5 | 27.15
Bond    | 0.00092128 | 0.0011484  | 0.0020358  |   0.6 |  0.01
Kspace  | 3.9398     | 4.8412     | 5.7727     |  15.9 | 47.73
Neigh   | 0.03043    | 0.031359   | 0.032091   |   0.3 |  0.31
Comm    | 1.0012     | 1.1258     | 1.2402     |   5.5 | 11.10
Output  | 0.00010127 | 0.00010516 | 0.00011003 |   0.0 |  0.00
Modify  | 1.0385     | 1.2358     | 1.3297     |   6.2 | 12.18
Other   |            | 0.1539     |            |       |  1.52

Nlocal:    24.625 ave 32 max 18 min
Histogram: 3 7 15 17 24 29 15 13 2 3
Nghost:    2911.98 ave 2938 max 2878 min
Histogram: 1 4 5 15 21 24 22 19 9 8
Neighs:    9251.32 ave 13667 max 5990 min
Histogram: 3 3 25 25 31 25 12 1 2 1

Total # of neighbors = 1184169
Ave neighs/atom = 375.688
Ave special neighs/atom = 1.90355
Neighbor list builds = 94
Dangerous builds = 0
PPPM initialization ...
  extracting TIP4P info from pair style
  using 12-bit tables for long-range coulomb (../kspace.cpp:321)
  G vector (1/distance) = 0.310703
  grid = 30 30 30
  stencil order = 5
  estimated absolute RMS force accuracy = 0.00366073
  estimated relative force accuracy = 1.10242e-05
  using double precision FFTs
  3d grid and FFT values/proc = 2475 256
Setting up Verlet run ...
  Unit style    : real
  Current step  : 40000
  Time step     : 0.5
Per MPI rank memory allocation (min/avg/max) = 7.949 | 8.195 | 8.218 Mbytes
Step Temp E_pair E_mol TotEng Press Volume 
   40000    301.13616   -20498.604            0   -18567.803    452.05737    32483.852 
   50000    299.40242   -20669.962            0   -18750.276   -515.56531    32656.893 
Loop time of 9.67998 on 128 procs for 10000 steps with 3152 atoms

Performance: 44.628 ns/day, 0.538 hours/ns, 1033.060 timesteps/s
99.4% CPU use with 128 MPI tasks x no OpenMP threads

MPI task timing breakdown:
Section |  min time  |  avg time  |  max time  |%varavg| %total
---------------------------------------------------------------
Pair    | 2.0578     | 2.8079     | 3.587      |  18.7 | 29.01
Bond    | 0.00094131 | 0.001148   | 0.002099   |   0.6 |  0.01
Kspace  | 3.5666     | 4.345      | 5.0719     |  14.9 | 44.89
Neigh   | 0.074144   | 0.075801   | 0.077432   |   0.4 |  0.78
Comm    | 0.98506    | 1.1032     | 1.2327     |   5.6 | 11.40
Output  | 8.7293e-05 | 8.9918e-05 | 0.00010492 |   0.0 |  0.00
Modify  | 0.97612    | 1.179      | 1.2684     |   6.3 | 12.18
Other   |            | 0.1678     |            |       |  1.73

Nlocal:    24.625 ave 33 max 15 min
Histogram: 3 2 8 20 15 34 21 9 10 6
Nghost:    2927.82 ave 2954 max 2903 min
Histogram: 5 9 10 21 23 17 24 7 9 3
Neighs:    9317.09 ave 13249 max 5042 min
Histogram: 3 3 12 14 25 26 23 14 3 5

Total # of neighbors = 1192588
Ave neighs/atom = 378.359
Ave special neighs/atom = 1.90355
Neighbor list builds = 239
Dangerous builds = 0
PPPM initialization ...
  extracting TIP4P info from pair style
  using 12-bit tables for long-range coulomb (../kspace.cpp:321)
  G vector (1/distance) = 0.310576
  grid = 30 30 30
  stencil order = 5
  estimated absolute RMS force accuracy = 0.00368009
  estimated relative force accuracy = 1.10825e-05
  using double precision FFTs
  3d grid and FFT values/proc = 2475 256
Setting up Verlet run ...
  Unit style    : real
  Current step  : 0
  Time step     : 2
Per MPI rank memory allocation (min/avg/max) = 8.199 | 8.21 | 8.218 Mbytes
Step Temp E_pair E_mol TotEng Press Volume 
       0    299.40242   -20669.962            0   -18750.277   -524.37517    32656.893 
   10000    298.77755    -20674.48            0   -18758.801    175.92491      32374.7 
   20000    296.67834   -20537.514            0   -18635.295   -131.55839    32678.606 
   30000    297.48569   -20653.003            0   -18745.607   -412.77793    32753.562 
   40000     300.7206   -20621.532            0   -18693.395   -893.83427     32751.28 
   50000    289.82891   -20664.972            0   -18806.669   -290.65807    33121.192 
   60000    298.85726    -20652.29            0   -18736.101   -183.10712    32507.646 
   70000    298.77318   -20667.303            0   -18751.653    449.24381    32567.755 
   80000    291.74869   -20632.631            0    -18762.02    657.21127    32528.992 
   90000    289.25692   -20626.434            0   -18771.799    525.29889    32754.971 
  100000    294.12463   -20622.001            0   -18736.155   -124.53045    32486.268 
  110000    297.93827    -20667.01            0   -18756.712    871.48021    32287.489 
  120000    305.72409   -20648.291            0   -18688.073   -293.92877    32574.964 
  130000    290.32113   -20643.406            0   -18781.947     579.8976    32738.268 
  140000    302.60851   -20661.676            0   -18721.434   -159.62904    32739.482 
  150000    297.19086   -20631.081            0   -18725.576   -438.35242    32494.663 
  160000     297.0704   -20622.497            0   -18717.764   -186.46107    32371.847 
  170000    305.02525    -20725.14            0   -18769.403    474.79293    32464.717 
  180000    299.12991   -20579.876            0   -18661.938    111.00947    32643.399 
  190000    292.79659   -20717.721            0    -18840.39   -634.52494    32776.373 
  200000    297.84541   -20612.238            0   -18702.536    47.723133    32449.633 
  210000     298.2947   -20678.033            0    -18765.45   -381.74376    32912.466 
  220000    290.33242   -20586.497            0   -18724.966   -47.923792    32757.756 
  230000    299.45583   -20608.818            0   -18688.791     708.7822     32573.61 
  240000    295.70606   -20658.272            0   -18762.286    421.50186     32618.66 
  250000    301.16448   -20627.647            0   -18696.664    222.69134    32620.084 
  260000    295.28889     -20578.8            0   -18685.489   -1069.6685    32691.449 
  270000    295.72376   -20597.101            0   -18701.002     78.96635    32794.559 
  280000    291.72372   -20602.565            0   -18732.114    191.95887    32683.043 
  290000    297.09669   -20730.283            0   -18825.381   -642.49689    32924.961 
  300000     299.7806   -20602.707            0   -18680.597   -813.33747    32989.641 
  310000    293.60242   -20621.672            0   -18739.175   -240.33483    32605.137 
  320000     300.7397   -20661.722            0   -18733.463   -238.26477    32758.598 
  330000    307.58686   -20637.822            0    -18665.66   -96.937875     32635.77 
  340000    308.36435   -20705.547            0   -18728.401   -329.44797    32923.231 
  350000    283.69815   -20649.103            0   -18830.109    194.89296    32146.757 
  360000    298.22605   -20648.291            0   -18736.148   -689.66209    32792.971 
  370000    298.78989   -20592.836            0   -18677.078    370.06076    32741.394 
  380000    299.32759   -20556.577            0   -18637.371    207.86212     32545.97 
  390000    296.64268   -20646.906            0   -18744.915    752.44471    32199.118 
  400000    299.66772   -20648.482            0   -18727.096   -132.65117    32647.116 
  410000    304.25172   -20606.789            0   -18656.011    306.84653    33022.155 
  420000    299.14401   -20685.812            0   -18767.783   -133.43464    32427.987 
  430000    287.25108    -20701.07            0   -18859.296    410.20937    32215.275 
  440000    303.07242   -20668.316            0     -18725.1    448.54512    32294.508 
  450000    295.38011   -20638.985            0    -18745.09    77.054638    32437.716 
  460000    287.02155   -20638.835            0   -18798.533     993.5145    32355.497 
  470000    294.98655   -20629.767            0   -18738.395   -206.35217    32665.527 
  480000    295.38539   -20620.382            0   -18726.453    -103.3965    32328.052 
  490000    298.54496    -20605.48            0   -18691.292    50.606709    32724.472 
  500000    299.35304   -20611.461            0   -18692.092   -253.35703    32813.089 
  510000    313.03697   -20635.694            0   -18628.588   -75.372866     32484.96 
  520000    300.09938     -20680.8            0   -18756.647    120.87399    32536.251 
  530000    304.41658   -20588.744            0   -18636.909   -37.110699     32517.52 
  540000    305.60233   -20583.508            0   -18624.071   -640.36049    32973.726 
  550000     284.1335   -20597.328            0   -18775.542   -675.91215     32650.11 
  560000    303.83494   -20546.304            0   -18598.199    327.22273    32621.827 
  570000    304.17096   -20610.024            0   -18659.765   -129.01546    33035.828 
  580000    307.13157   -20479.189            0   -18509.947   -232.70837    33409.848 
  590000    308.31772   -20695.773            0   -18718.925    401.68111    32463.721 
  600000    303.53406   -20654.644            0   -18708.468   -399.72248    32774.834 
  610000    294.65132   -20576.994            0   -18687.772   -660.10713    32823.549 
  620000    297.41692   -20559.275            0   -18652.321    -394.9258     32852.84 
  630000    294.33576   -20726.568            0   -18839.369    56.917869    32391.374 
  640000    307.38582   -20597.915            0   -18627.042    244.79795    32451.098 
  650000    295.02329   -20715.222            0   -18823.615    756.20944    32382.657 
  660000    295.64188   -20634.531            0   -18738.958   -62.403291    32472.685 
  670000    294.32358   -20647.622            0   -18760.501   -901.45169    32391.448 
  680000    300.76889   -20656.286            0   -18727.839   -71.380411    32401.843 
  690000    296.00378   -20589.738            0   -18691.844    141.18716    32690.924 
  700000    304.37266   -20585.747            0   -18634.194    35.350839    32666.641 
  710000      299.858    -20592.98            0   -18670.374    -472.8063    32875.547 
  720000    294.32321   -20622.532            0   -18735.413   -850.75491    32683.843 
  730000     299.6264   -20702.703            0   -18781.582     4.911393    32522.478 
  740000    294.31818    -20671.95            0   -18784.864    1375.6895    32172.141 
  750000    307.68915   -20555.222            0   -18582.405    230.35284    33010.106 
  760000    303.94386   -20601.311            0   -18652.507    645.22757    32528.751 
  770000    297.01685   -20702.333            0   -18797.943    645.63856    32197.254 
  780000    294.94969   -20638.019            0   -18746.884   -563.26172    32931.134 
  790000    292.58615   -20627.269            0   -18751.288    20.923066    32494.692 
  800000     300.4553   -20622.423            0   -18695.987    5.7768028    32385.079 
  810000    303.73173   -20616.785            0   -18669.341    97.879792    32966.308 
  820000    300.10712   -20677.028            0   -18752.824    -359.7414    32409.917 
  830000     302.8416   -20658.369            0   -18716.633    377.41158    32560.842 
  840000     294.8667   -20659.924            0    -18769.32   -55.909467    32570.477 
  850000    301.27753   -20660.891            0   -18729.183    389.97948    32900.648 
  860000    296.44694   -20643.856            0   -18743.121    248.43284    32075.484 
  870000    299.33456   -20670.897            0   -18751.647   -597.10169    32732.954 
  880000    299.97205   -20633.618            0    -18710.28   -545.40382    33384.764 
  890000    304.11087   -20558.359            0   -18608.485    252.07385    32623.858 
  900000    303.88935   -20654.187            0   -18705.733   -895.58008    32833.933 
  910000     295.4641   -20597.842            0   -18703.408    390.21878    32318.001 
  920000    289.02929   -20573.397            0   -18720.221   -223.97644    32518.299 
  930000    302.94554   -20619.403            0       -18677   -474.58191    32763.079 
  940000    299.96661   -20546.296            0   -18622.993   -1.2583883    32805.183 
  950000    301.75013   -20630.859            0   -18696.121   -194.76558    32502.312 
  960000     305.2236   -20638.088            0   -18681.079   -9.4264297    32483.481 
  970000    291.60275   -20623.466            0    -18753.79    382.42554    32961.327 
  980000    306.79097   -20642.188            0    -18675.13   -396.43517    32994.905 
  990000     298.0291   -20620.858            0   -18709.978    -434.0102    32903.935 
 1000000    297.30392   -20589.253            0   -18683.023   -300.06149    32672.879 
 1010000    298.38099   -20560.573            0   -18647.437   -282.95012    32806.165 
 1020000    309.05585   -20661.428            0   -18679.847   -327.89128    32492.232 
 1030000    296.45261    -20600.05            0   -18699.279    112.96896    32211.207 
 1040000     303.6308   -20610.794            0   -18663.998    73.068241    32864.209 
 1050000    301.98499   -20614.961            0   -18678.717    147.49683    33047.716 
 1060000    305.20665    -20652.66            0    -18695.76    -57.50961    32434.103 
 1070000    306.11875   -20573.033            0   -18610.284   -4.4944555    32670.728 
 1080000    303.08642   -20649.379            0   -18706.073    149.46538    32686.117 
 1090000    295.47519   -20637.801            0   -18743.297   -531.80836    33054.666 
 1100000    294.42819   -20631.369            0   -18743.577   -632.15703    32837.552 
 1110000    294.78289   -20590.803            0   -18700.737   -442.07929     33193.12 
 1120000    296.62277   -20747.747            0   -18845.884   -628.66634    32827.821 
 1130000    297.47873   -20622.153            0   -18714.802   -107.07362    32498.717 
 1140000    296.60908   -20602.721            0   -18700.945    -518.9377    32706.277 
 1150000    299.68467   -20638.654            0   -18717.159    112.47287    32608.465 
 1160000    303.19785    -20627.56            0   -18683.539    469.95455    32485.504 
 1170000    301.57331   -20565.991            0   -18632.387   -262.17056    32851.644 
 1180000    299.87769   -20704.158            0   -18781.425    549.04349    32576.106 
 1190000    294.05183   -20530.309            0    -18644.93    466.29479    32499.336 
 1200000    297.92558   -20642.726            0    -18732.51   -135.42547    32967.378 
 1210000    306.26459   -20698.692            0   -18735.009    651.76586    32488.862 
 1220000    291.97319   -20632.506            0   -18760.455    208.69668    32411.547 
 1230000    295.24285   -20613.068            0   -18720.053   -139.75744    32711.513 
 1240000    297.10138   -20585.142            0   -18680.211   -407.61124    32904.762 
 1250000    299.75793   -20642.597            0   -18720.632   -526.39196    33085.769 
 1260000    296.28107    -20668.94            0   -18769.268    531.72946    32218.824 
 1270000    294.85901   -20655.113            0   -18764.559    349.09981    32586.504 
 1280000    294.36485   -20696.054            0   -18808.668    1212.5422    32362.838 
 1290000    295.35252   -20524.903            0   -18631.185   -8.4324721    33080.395 
 1300000    294.16537   -20707.902            0   -18821.796    341.06713    32860.512 
 1310000    301.82075   -20601.291            0     -18666.1   -884.92883    33166.957 
 1320000    292.70641   -20658.504            0   -18781.752   -644.49079    32774.994 
 1330000    300.81841   -20632.517            0   -18703.753    333.57693    32329.045 
 1340000    291.10928   -20783.112            0     -18916.6    32.784924    32403.038 
 1350000    296.43573    -20603.08            0   -18702.417    506.51078    32681.436 
 1360000    315.52884   -20710.262            0   -18687.179    475.97252    32771.641 
 1370000    305.53012    -20623.58            0   -18664.606    51.023112    32538.687 
 1380000    297.05955   -20655.063            0     -18750.4    675.88489    32212.716 
 1390000    302.72547     -20571.9            0   -18630.908   -184.60349    32788.007 
 1400000    296.41788   -20672.392            0   -18771.843   -301.83243    33004.709 
 1410000    294.75483   -20581.834            0   -18691.948   -337.07645    33130.056 
 1420000    298.26655   -20493.546            0   -18581.143   -250.34526    32866.915 
 1430000    304.01576   -20628.319            0   -18679.055   -20.116354    32316.533 
 1440000    303.18098   -20644.883            0   -18700.971    853.85303    32743.066 
 1450000    300.08059   -20721.662            0   -18797.628    339.82084    32481.094 
 1460000    304.46455   -20557.154            0   -18605.011   -184.27362    32764.049 
 1470000    293.94651   -20621.788            0   -18737.085    186.53319    32945.048 
 1480000     292.6954   -20624.656            0   -18747.974   -361.42396    32627.367 
 1490000    300.30344   -20724.679            0   -18799.216   -768.33602    32568.587 
 1500000    300.80879   -20725.538            0   -18796.835   -305.58871    32917.579 
 1510000    297.78314   -20663.193            0    -18753.89    621.73054    32840.881 
 1520000     296.5344   -20583.094            0   -18681.798    281.12907    32775.427 
 1530000    299.24403   -20633.754            0   -18715.085    506.04841    32740.783 
 1540000    300.17632     -20597.3            0   -18672.652    270.75406    32609.242 
 1550000    305.52318   -20626.095            0   -18667.166    698.16737    32692.718 
 1560000    291.65214   -20655.087            0   -18785.095    749.13882    32104.397 
 1570000    300.35401   -20638.667            0    -18712.88   -17.544036    32745.025 
 1580000    313.41209   -20592.532            0    -18583.02    548.49687    32679.488 
 1590000    294.15106   -20644.471            0   -18758.456    119.85809    32690.261 
 1600000    296.07353   -20599.584            0   -18701.243    780.90052    32620.197 
 1610000     290.8263   -20655.484            0   -18790.787   -551.87765    32846.172 
 1620000    293.89707   -20625.133            0   -18740.747    355.75258     32634.54 
 1630000    290.63286   -20644.412            0   -18780.955    475.78158    32622.447 
 1640000    300.36086   -20677.283            0   -18751.453    313.89817    32800.273 
 1650000    296.05276    -20716.46            0   -18818.252    286.13575    32512.862 
 1660000    295.83168   -20579.436            0   -18682.645    222.64757    32279.065 
 1670000    301.06538   -20605.188            0    -18674.84    -828.3008    33063.058 
 1680000    283.76489   -20685.998            0   -18866.577   -893.64902    32478.823 
 1690000    303.63464   -20655.656            0   -18708.835    342.23671    32865.971 
 1700000    297.17553   -20670.966            0   -18765.559    252.14356    32165.893 
 1710000    312.39917   -20650.208            0   -18647.191   -459.28347    32647.468 
 1720000    300.33814    -20622.29            0   -18696.606   -556.72553    32741.676 
 1730000    304.31234   -20651.637            0   -18700.471    1335.1711    32314.171 
 1740000    300.95401    -20642.05            0   -18712.417   -371.44607    32544.749 
 1750000    296.29376    -20553.87            0   -18654.116   -326.93097    33084.502 
 1760000    293.81987   -20664.851            0    -18780.96   -447.75553     32711.98 
 1770000    297.95336   -20518.921            0   -18608.527   -621.32379    32996.473 
 1780000    302.24416   -20584.437            0   -18646.531    284.74389    33013.785 
 1790000    304.16744   -20637.048            0   -18686.811    822.94813    32303.946 
 1800000    302.03877   -20686.939            0    -18750.35    250.53699    32315.381 
 1810000    298.03661   -20672.627            0   -18761.699   -152.05977    32638.373 
 1820000     295.7769   -20629.516            0   -18733.077    667.55706    32107.749 
 1830000    298.46169   -20629.124            0   -18715.471   -775.40864        32834 
 1840000     290.7862   -20579.396            0   -18714.955   -949.68584    32810.735 
 1850000    304.09958   -20512.838            0   -18563.036   -543.74121    32904.925 
 1860000    305.28015   -20639.368            0   -18681.996   -152.28558    32788.254 
 1870000    291.29234   -20608.749            0   -18741.063    381.38236    32400.596 
 1880000    303.73148   -20516.222            0    -18568.78    555.62114    32523.533 
 1890000    292.11747   -20697.266            0    -18824.29    351.25968     32718.87 
 1900000    301.07016   -20617.693            0   -18687.314   -387.54568    32259.314 
 1910000    300.46089   -20697.495            0   -18771.023   -253.38965    32413.823 
 1920000    314.23711   -20613.909            0   -18599.108   -22.919667    32853.542 
 1930000    297.03888   -20611.677            0   -18707.146       -477.4    32689.991 
 1940000    308.68186   -20611.103            0    -18631.92    257.10901    32483.518 
 1950000    305.17316   -20673.953            0   -18717.268   -201.47067    32532.966 
 1960000    291.01305   -20649.113            0   -18783.218   -385.84846    32306.622 
 1970000    296.44516   -20662.048            0   -18761.324   -475.26014    33083.579 
 1980000    289.03967   -20582.953            0   -18729.711   -607.56057     33172.37 
 1990000    301.20887   -20566.607            0    -18635.34   -872.75898    32486.278 
 2000000    306.92273   -20558.849            0   -18590.945     341.9241    32849.678 
 2010000    306.02537   -20632.991            0   -18670.842    384.98207    33032.188 
 2020000    296.13712   -20717.224            0   -18818.475    452.68413    32520.279 
 2030000    307.18025   -20680.987            0   -18711.433     655.4214    32106.273 
 2040000    306.34866   -20592.847            0   -18628.625   -486.31032    32980.354 
 2050000    305.25393   -20570.443            0    -18613.24    189.08413     32331.42 
 2060000    301.73825   -20584.233            0   -18649.571    8.5679595    32566.604 
 2070000    294.80855   -20645.677            0   -18755.446    197.84745    32339.883 
 2080000    287.88594   -20652.838            0   -18806.994    269.14538    32924.258 
 2090000    291.39936   -20736.865            0   -18868.493    963.04865    32329.249 
 2100000    304.76534   -20625.664            0   -18671.593    75.623727    32274.267 
 2110000    296.34964   -20725.792            0   -18825.681   -255.04286    32638.845 
 2120000    305.98179   -20671.802            0   -18709.932    331.25869      32504.6 
 2130000    304.32502   -20679.057            0    -18727.81    -76.75912    32819.985 
 2140000    293.08842   -20644.063            0   -18764.862     55.83738    32620.897 
 2150000    297.68437   -20642.729            0    -18734.06   -504.06645    32554.077 
 2160000    291.40594    -20570.39            0   -18701.976    1083.4723    32103.939 
 2170000    294.05571   -20622.034            0    -18736.63    1064.2452    32566.989 
 2180000    297.34368   -20724.072            0   -18817.587   -736.76493     33024.55 
 2190000    288.51412   -20691.515            0   -18841.643   -74.834116    32649.064 
 2200000     297.2166   -20541.605            0   -18635.934    137.90032    32576.616 
 2210000      286.857   -20676.764            0   -18837.516    -112.2081     32644.18 
 2220000    302.51718   -20659.561            0   -18719.905   -15.436127    32663.909 
 2230000    299.42453    -20501.51            0   -18581.683   -681.91226    33111.529 
 2240000    296.35669   -20600.444            0   -18700.287    127.90066    32759.547 
 2250000    292.13509   -20641.184            0   -18768.095   -152.30568     32271.43 
 2260000    303.07588     -20597.7            0   -18654.462    515.06625    32359.076 
 2270000    298.88482   -20682.905            0   -18766.538     311.1198    32757.087 
 2280000    293.33021   -20548.977            0   -18668.225   -571.71978    32900.984 
 2290000    294.00835    -20618.24            0    -18733.14    195.27137    32829.771 
 2300000    292.18651    -20509.69            0   -18636.271    176.28677    33017.419 
 2310000    302.67854   -20665.647            0   -18724.956   -535.60819    32844.171 
 2320000    304.49415   -20583.435            0   -18631.103   -51.708819    32847.264 
 2330000    290.75422   -20583.764            0   -18719.529   -759.12169     32623.13 
 2340000    295.80099   -20613.714            0    -18717.12   -627.72716    33039.133 
 2350000    287.46632   -20703.359            0   -18860.205   -30.170088    32560.593 
 2360000    300.83586   -20603.318            0   -18674.442    488.93632    32557.843 
 2370000     309.9355   -20622.974            0   -18635.754    335.48086    32610.036 
 2380000    298.06562   -20613.795            0   -18702.681     1145.001    32118.377 
 2390000    296.85388   -20653.316            0   -18749.971    148.46436    32858.588 
 2400000    296.28154   -20644.993            0   -18745.318    776.66639    32417.594 
 2410000    300.67047   -20585.939            0   -18658.123   -354.56305     32918.37 
 2420000    300.86342    -20663.21            0   -18734.158    465.70489    32686.931 
 2430000    298.60944   -20628.641            0    -18714.04    738.93071    32815.603 
 2440000    308.05681   -20565.565            0    -18590.39    155.90877    32547.752 
 2450000    292.82266   -20646.778            0    -18769.28    185.39756    32997.813 
 2460000     309.3108   -20681.313            0   -18698.098    233.03044    32349.597 
 2470000    294.21616   -20540.669            0   -18654.236    87.060462    32749.069 
 2480000    291.37631   -20602.197            0   -18733.973    32.961077    32557.072 
 2490000     293.2912   -20712.992            0   -18832.491   -577.59712    32403.858 
 2500000    293.70179   -20591.552            0   -18708.418   -72.423908    32731.069 
 2510000    291.35198   -20721.988            0    -18853.92    869.12748    32040.024 
 2520000    302.39556    -20673.06            0   -18734.184    155.56919    32642.609 
 2530000    305.33403   -20610.325            0   -18652.608   -816.69506    32388.664 
 2540000    301.86735   -20692.495            0   -18757.005    -44.56024    32436.051 
 2550000    289.02299   -20733.461            0   -18880.326   -149.72966    32663.092 
 2560000    294.95136   -20574.767            0   -18683.621   -334.25927    32959.755 
 2570000    299.62494     -20693.6            0   -18772.488    483.82828    32859.516 
 2580000    306.76401   -20673.605            0   -18706.719    107.21893    32497.339 
 2590000    288.65615   -20534.133            0    -18683.35    99.426645      32968.6 
 2600000     302.6701   -20612.539            0   -18671.903    328.34781     33118.51 
 2610000    297.74896    -20581.42            0   -18672.336    1143.0103     32924.07 
 2620000    300.29078   -20604.999            0   -18679.618   -123.19857    32551.856 
 2630000     298.8645   -20667.031            0   -18750.795    417.76979    33096.769 
 2640000    299.28138    -20664.37            0   -18745.461    232.01367    32534.739 
 2650000    308.53086   -20666.383            0   -18688.169    394.95581    32174.493 
 2660000    300.94571   -20662.265            0   -18732.685    549.66619     32175.79 
 2670000      299.032   -20647.549            0   -18730.239   -567.74185    32724.003 
 2680000    295.93907   -20522.464            0   -18624.985   -241.55707    32972.076 
 2690000    299.81448   -20641.113            0   -18718.786    606.85839    32727.691 
 2700000    299.21389   -20631.462            0   -18712.985    175.51044    32627.175 
 2710000    292.65147   -20630.704            0   -18754.304    -810.0984    32694.898 
 2720000    289.10442   -20610.064            0   -18756.407   -536.82976    32711.783 
 2730000    296.97757   -20602.073            0   -18697.935   -267.31845    32827.053 
 2740000    295.89009   -20577.684            0   -18680.519    247.44894    32576.553 
 2750000    299.55897   -20698.668            0   -18777.979    549.02273    32552.019 
 2760000    301.77718   -20680.318            0   -18745.407   -703.12224    32982.883 
 2770000    303.96984   -20744.632            0   -18795.661    46.997665    32668.879 
 2780000    295.43349   -20642.473            0   -18748.235   -186.09583    32632.924 
 2790000    300.14716   -20555.814            0   -18631.354   -9.4495407    32568.554 
 2800000    292.58342   -20604.762            0   -18728.799    923.80003    32361.741 
 2810000    297.55236   -20606.064            0   -18698.241    459.84258    32506.804 
 2820000    299.46572    -20568.65            0   -18648.559    129.57539    32756.616 
 2830000    285.26299   -20642.925            0   -18813.898    484.85531    32408.037 
 2840000    290.68129   -20579.212            0   -18715.444   -149.02476    33006.783 
 2850000    301.57626   -20668.691            0   -18735.068    209.43925    32718.419 
 2860000    289.68846    -20619.55            0   -18762.148   -660.92765    32657.908 
 2870000    304.65837   -20593.112            0   -18639.727   -378.54231    32412.067 
 2880000    293.89194   -20647.498            0   -18763.144    4.4323407    32960.792 
 2890000    291.98803   -20718.696            0    -18846.55   -194.02104     31945.94 
 2900000    304.06853   -20629.053            0    -18679.45   -92.464891    33093.461 
 2910000    306.66994   -20601.712            0   -18635.429     899.1153     32272.43 
 2920000    302.87773   -20771.581            0   -18829.613   -387.43973    32836.815 
 2930000    296.78336   -20651.646            0   -18748.753    -149.4344    33186.446 
 2940000    299.38819   -20658.803            0   -18739.209    983.93679    32431.025 
 2950000    296.74222   -20605.348            0   -18702.719   -1052.0505    32793.296 
 2960000    290.12563   -20610.905            0     -18750.7   -7.4741454    32699.578 
 2970000    294.29646   -20605.753            0   -18718.806   -314.19522    32712.807 
 2980000    306.56731   -20639.967            0   -18674.342    181.85574    32511.656 
 2990000    298.32629   -20633.406            0    -18720.62      581.615    32404.148 
 3000000    300.91662    -20739.68            0   -18810.286    882.05257    32288.392 
 3010000    293.96833   -20613.183            0    -18728.34   -234.46806    32882.439 
 3020000    299.97283   -20726.146            0   -18802.804   -218.09624    32705.468 
 3030000    302.36108   -20757.235            0    -18818.58    269.46832    32593.858 
 3040000    301.89937   -20587.613            0   -18651.918    306.44163    33103.718 
 3050000    296.50469   -20614.317            0   -18713.211   -65.609234    32439.024 
 3060000    292.41632   -20628.516            0   -18753.623    31.194058    32829.331 
 3070000    300.57641    -20645.13            0   -18717.917    396.67017    33228.522 
 3080000    290.49799   -20730.304            0   -18867.712    543.57583    32258.586 
 3090000    294.56921   -20605.325            0   -18716.629   -275.19143    32794.628 
 3100000    292.08687   -20631.616            0   -18758.836   -47.709708    32747.171 
 3110000    290.50393   -20671.597            0   -18808.967    573.82477     32323.21 
 3120000    290.35082   -20577.948            0   -18716.299   -44.120616    32722.811 
 3130000    310.87914   -20693.301            0    -18700.03   -358.28791    33062.596 
 3140000    297.98947   -20519.451            0   -18608.825    757.95891    33009.573 
 3150000    285.48945   -20619.208            0   -18788.729   -657.67078    32813.604 
 3160000    298.96966   -20606.393            0   -18689.483    17.450636    32543.394 
 3170000    291.44867    -20645.94            0   -18777.252    181.00543    32624.235 
 3180000    294.30628   -20640.668            0   -18753.658    28.265343    32965.707 
 3190000    309.44818   -20628.227            0   -18644.131   -916.58495    33115.258 
 3200000    294.56234   -20719.375            0   -18830.723    672.15306    32204.191 
 3210000    292.58645   -20641.413            0    -18765.43    167.98402    32940.365 
 3220000    300.81551   -20599.548            0   -18670.803    -787.2141    32936.287 
 3230000    300.70756   -20618.844            0    -18690.79     234.2596     32880.71 
 3240000    298.46615   -20686.562            0    -18772.88   -184.49696    32525.811 
 3250000    294.83875   -20551.816            0   -18661.392    266.93503     32644.43 
 3260000    296.77516   -20548.345            0   -18645.505    507.84791    32440.905 
 3270000    304.45822   -20634.666            0   -18682.564    -1055.384    32770.309 
 3280000    295.86155   -20703.128            0   -18806.146    344.11004    32629.261 
 3290000    290.24904   -20589.524            0   -18728.528    21.442037    32552.318 
 3300000    295.12694   -20673.076            0   -18780.804    192.02725    32421.498 
 3310000    299.70583   -20633.245            0   -18711.615   -273.59214    32787.256 
 3320000    293.79812   -20602.925            0   -18719.173   -32.215187    32795.395 
 3330000    293.99884   -20623.336            0   -18738.297     263.4797    32803.813 
 3340000    298.23967   -20613.086            0   -18700.856    563.14556    32726.846 
 3350000     298.1824   -20631.683            0    -18719.82    969.93967    32363.463 
 3360000    303.64131   -20676.146            0   -18729.282    414.21246    32343.146 
 3370000    290.50076   -20638.151            0   -18775.541   -102.64874    32310.778 
 3380000    300.28119   -20665.973            0   -18740.654    217.13708    32487.902 
 3390000    298.66879   -20561.648            0   -18646.667    642.36664    32587.164 
 3400000    291.88183   -20653.072            0   -18781.606   -9.7896314    32702.771 
 3410000    291.63217   -20558.131            0   -18688.267   -31.767129    33103.753 
 3420000    295.67976   -20656.469            0   -18760.653    1022.3596    32350.522 
 3430000    290.73544   -20709.913            0   -18845.798    522.29385     32309.53 
 3440000    296.14064   -20558.829            0   -18660.058   -205.63467    32748.978 
 3450000    304.56976   -20679.835            0   -18727.018    25.269093    32710.401 
 3460000     298.7207   -20706.481            0   -18791.167     -689.827     32983.85 
 3470000    305.63255   -20619.277            0   -18659.645    125.57142    32814.621 
 3480000    301.01187   -20561.885            0   -18631.881   -401.09865    33002.604 
 3490000     293.8675   -20642.604            0   -18758.407   -365.16265    32772.075 
 3500000    289.96448   -20660.178            0   -18801.006   -845.12419    32737.773 
 3510000    302.72984   -20645.412            0   -18704.392   -380.73635    32655.487 
 3520000    300.19604   -20592.002            0   -18667.229    442.28206    32756.468 
 3530000    299.77064   -20680.991            0   -18758.945    718.18042    32657.804 
 3540000    300.48295   -20612.713            0     -18686.1   -587.97156    32921.471 
 3550000    296.49832   -20558.178            0   -18657.113    624.62681    32435.031 
 3560000    309.59058   -20642.238            0   -18657.229    607.26647    32475.196 
 3570000    295.32185    -20678.54            0   -18785.019    -373.6762    32511.163 
 3580000    288.84704   -20597.266            0   -18745.258    295.94506     32790.03 
 3590000    295.57011   -20647.766            0   -18752.653     -197.259    32903.535 
 3600000    296.02388   -20701.473            0    -18803.45   -909.43407    33122.878 
 3610000    301.07256   -20616.705            0   -18686.312   -1314.4462    32915.752 
 3620000      295.528   -20732.932            0   -18838.089   -823.65257    32632.441 
 3630000    301.44215   -20671.388            0   -18738.625    1.0128694    32432.656 
 3640000    289.44501   -20614.912            0   -18759.071    246.07106     32673.54 
 3650000    286.73155   -20626.845            0   -18788.402   -153.64712    32709.466 
 3660000    301.94411   -20647.481            0   -18711.499    702.54775     32720.62 
 3670000    299.40919   -20641.815            0   -18722.086    189.13698    32507.203 
 3680000    293.87624   -20629.241            0   -18744.989   -8.5143257    32524.725 
 3690000    294.32062   -20641.767            0   -18754.665    590.07879    32461.054 
 3700000    293.84659    -20571.68            0   -18687.618    793.34704     32615.85 
 3710000    295.35738   -20706.065            0   -18812.315   -943.60379    32767.802 
 3720000     294.4049   -20649.412            0    -18761.77   -188.75033    32294.427 
 3730000    287.70025   -20685.096            0   -18840.442   -636.18303    32645.675 
 3740000    290.99557   -20711.961            0   -18846.179   -369.50993    32773.086 
 3750000    297.93677   -20621.274            0   -18710.986   -230.67516    32767.651 
 3760000    300.54643   -20592.187            0   -18665.167    106.15834    32706.879 
 3770000    295.19977   -20597.707            0   -18704.968   -591.36652    33004.157 
 3780000    296.12961   -20587.919            0   -18689.218    52.521603    33006.251 
 3790000    294.46529   -20649.205            0   -18761.176    60.626136    32217.853 
 3800000    299.70446   -20656.734            0   -18735.112   -71.358229    32991.208 
 3810000    295.23352   -20601.769            0   -18708.814   -944.96976    32788.207 
 3820000    299.82669   -20663.071            0   -18740.665    -227.7679    32860.718 
 3830000    299.87837   -20609.547            0    -18686.81   -832.57658    32519.687 
 3840000    287.36156   -20537.141            0   -18694.659    25.800742    32364.285 
 3850000    301.19947   -20592.332            0   -18661.124    14.977681    32877.538 
 3860000    311.88506   -20653.441            0   -18653.721     328.9543    32416.818 
 3870000    309.06521   -20597.953            0   -18616.313   -352.43658    32413.227 
 3880000    295.15641   -20714.284            0   -18821.823   -147.16263    32720.552 
 3890000    295.41485   -20695.644            0   -18801.526    243.04762    32892.009 
 3900000    302.10321   -20622.954            0   -18685.952   -469.67647    33031.131 
 3910000    296.88836   -20547.359            0   -18643.794   -487.17173    32917.304 
 3920000    295.43315   -20610.433            0   -18716.198   -358.23136    32603.427 
 3930000    309.01696   -20751.411            0    -18770.08   -291.96434    32670.401 
 3940000    301.69367   -20630.396            0    -18696.02   -642.20086     32347.04 
 3950000    295.49217   -20639.843            0   -18745.229    934.19925    32460.271 
 3960000     292.7632   -20587.558            0   -18710.442    -301.4044     32491.56 
 3970000    292.96322   -20553.956            0   -18675.557   -5.0200917    32935.533 
 3980000    287.16055    -20682.85            0   -18841.656   -469.33948    32715.112 
 3990000    306.01873   -20603.109            0   -18641.001   -81.854114    32526.555 
 4000000    299.72942     -20633.4            0   -18711.618    -16.31767    32691.019 
 4010000    298.09639   -20670.576            0   -18759.264    -726.8796    33171.067 
 4020000    299.82105   -20623.135            0   -18700.766    735.59917    32492.825 
 4030000    301.69343   -20619.313            0   -18684.938   -14.086641    32606.725 
 4040000    300.57432   -20703.587            0   -18776.388    537.48871     32713.55 
 4050000    298.89751   -20685.773            0   -18769.326   -531.18049    32752.769 
 4060000    296.10928   -20716.585            0   -18818.015    91.410185    32587.552 
 4070000    306.51037   -20620.739            0   -18655.479    545.30343     32494.73 
 4080000    307.92058   -20675.998            0   -18701.696   -431.48377    32816.109 
 4090000    296.90595    -20631.37            0   -18727.692    51.440261    32820.047 
 4100000    296.75689   -20612.712            0   -18709.989    276.99391    32763.762 
 4110000    289.80045    -20562.64            0    -18704.52   -104.74793    32810.136 
 4120000    306.30668   -20636.116            0   -18672.163    -943.2993    32676.389 
 4130000    302.34434    -20740.49            0   -18801.942   -4.8718596     32600.72 
 4140000    303.22541    -20633.06            0   -18688.863   -425.92764    32667.861 
 4150000    293.95401   -20671.941            0    -18787.19    470.18569    32551.026 
 4160000    300.30915    -20580.25            0   -18654.751   -598.27155    33377.002 
 4170000    299.32139   -20613.864            0   -18694.698    294.46453    32286.206 
 4180000      301.779   -20569.385            0   -18634.461    64.272594    33053.029 
 4190000    295.33843   -20704.825            0   -18811.197   -782.95932    32672.136 
 4200000    302.47803   -20595.566            0   -18656.161   -101.55267    32320.408 
 4210000    303.11963   -20606.124            0   -18662.606   -568.36338    33181.459 
 4220000     298.0962   -20685.797            0   -18774.487     325.6065     32547.37 
 4230000    315.91533   -20609.892            0   -18584.331    191.99958    32644.255 
 4240000    296.55326   -20682.525            0   -18781.108   -552.84114    33147.281 
 4250000    286.97754   -20676.711            0   -18836.691   -486.16432    32575.612 
 4260000    302.23501   -20479.552            0   -18541.705   -426.69891    32977.827 
 4270000    301.67925   -20583.306            0   -18649.023   -93.370485    32738.939 
 4280000    300.57507     -20626.3            0   -18699.096   -32.436484    32721.903 
 4290000    303.42306   -20679.789            0   -18734.325    484.03296     33048.69 
 4300000     298.1778   -20610.991            0   -18699.157   -126.40369    32776.797 
 4310000    293.76651   -20524.265            0   -18640.716   -136.28619    32668.983 
 4320000    306.41584   -20627.868            0   -18663.215    -271.5066    33172.598 
 4330000    295.39137   -20538.015            0   -18644.047   -851.72307    33028.338 
 4340000    298.00841    -20541.23            0   -18630.482    140.69133    32696.084 
 4350000    297.38127   -20574.671            0   -18667.945     -290.606    32775.713 
 4360000    298.75311   -20661.649            0   -18746.127    966.18166    32398.071 
 4370000    304.38434   -20557.204            0   -18605.576    342.83863    32914.991 
 4380000    297.72237   -20723.749            0   -18814.836    488.02743    32256.118 
 4390000    293.23938   -20598.554            0   -18718.385    -1429.625    33278.949 
 4400000    294.62507   -20673.442            0   -18784.388    321.87643     32209.71 
 4410000    294.62486   -20633.281            0   -18744.228    87.087831    32704.107 
 4420000    302.46997   -20601.502            0   -18662.148    774.69033     32187.74 
 4430000    298.32929   -20665.254            0   -18752.449   -479.51047    32756.869 
 4440000    302.51419   -20577.124            0   -18637.487    377.06778    32792.206 
 4450000    303.32849   -20719.482            0   -18774.624    -296.6507    32583.954 
 4460000    302.67515   -20600.418            0   -18659.749   -17.018705      32857.2 
 4470000     285.3847    -20706.45            0   -18876.643   -650.18483    32337.678 
 4480000    298.22692   -20645.005            0   -18732.856    50.624366    32908.767 
 4490000    301.55249   -20678.657            0   -18745.186    460.15361    32617.316 
 4500000    291.32213    -20645.58            0   -18777.703   -68.408231    32607.437 
 4510000    292.29757    -20590.37            0   -18716.239   -52.223057    32655.589 
 4520000    290.33906   -20616.556            0   -18754.982   -600.05097    32688.742 
 4530000    293.17272   -20681.492            0    -18801.75   -188.47929     32688.82 
 4540000    293.38684   -20596.223            0   -18715.108    1216.9079    32571.445 
 4550000    293.24889   -20580.388            0   -18700.157   -506.05329    33022.024 
 4560000    306.46735   -20665.089            0   -18700.105     16.51149    33187.514 
 4570000    300.60759   -20556.842            0    -18629.43   -674.79453    33101.742 
 4580000    305.12805   -20600.453            0   -18644.057    41.218419    32810.751 
 4590000    291.44941   -20761.053            0   -18892.361    259.18242     32479.04 
 4600000    290.85352   -20700.895            0   -18836.023   -391.85511    32824.365 
 4610000    289.08233   -20646.706            0   -18793.191   -139.58205    32861.891 
 4620000    300.58697   -20667.013            0   -18739.733   -423.97012    32852.767 
 4630000    303.55796   -20626.948            0   -18680.619    460.25721    32413.443 
 4640000    296.67715   -20572.447            0   -18670.236   -838.92221    32882.326 
 4650000    291.74797   -20668.698            0   -18798.091    582.29523    32891.628 
 4660000    301.37615   -20594.247            0   -18661.907   -597.16662    32973.268 
 4670000    297.56688   -20567.845            0   -18659.928   -1065.9984    33261.682 
 4680000    298.00232   -20626.767            0   -18716.059     800.4427     32612.85 
 4690000    299.12063   -20687.825            0   -18769.946    737.63789    32490.391 
 4700000    293.82222   -20710.771            0   -18826.864     39.29748     32888.84 
 4710000    292.70308   -20517.522            0   -18640.791   -127.47469    32845.086 
 4720000    303.26239   -20616.038            0   -18671.604     146.3457    32713.499 
 4730000    302.04886   -20658.846            0   -18722.192    502.67028    32418.835 
 4740000    294.83455   -20648.329            0   -18757.931   -171.48516    32983.295 
 4750000    295.69028   -20766.952            0   -18871.068    190.27684    32427.184 
 4760000    300.49519   -20552.033            0   -18625.341   -625.03182    32929.066 
 4770000     307.4638   -20726.352            0   -18754.979    889.50636    32048.637 
 4780000    296.11199   -20672.503            0   -18773.915   -756.10891     32735.03 
 4790000    295.38482   -20612.033            0   -18718.107    362.99221    32346.307 
 4800000    293.21988   -20703.797            0   -18823.753    -315.0201    32728.156 
 4810000    293.80266    -20666.56            0   -18782.779   -224.31176     32545.58 
 4820000    291.84118   -20682.937            0   -18811.733    582.78422    32662.834 
 4830000    310.31544   -20592.331            0   -18602.674    544.89286    32469.609 
 4840000     297.8345   -20597.188            0   -18687.556   -368.70991    33165.221 
 4850000    293.45366   -20666.555            0   -18785.011    584.64251    32313.453 
 4860000    296.26408   -20554.708            0   -18655.145   -509.78673    32856.498 
 4870000    301.49836   -20673.666            0   -18740.542    228.93265    32337.946 
 4880000    300.02613   -20705.357            0   -18781.673    12.631583    32231.852 
 4890000    289.53139   -20660.334            0   -18803.939    213.60829    32564.059 
 4900000    306.33664   -20651.176            0    -18687.03   -331.63354    32909.076 
 4910000    299.81842   -20543.426            0   -18621.073    28.423307    32644.104 
 4920000    296.85764    -20648.01            0   -18744.641   -192.09165    32465.945 
 4930000    302.02492   -20564.903            0   -18628.403    553.31628    32523.588 
 4940000    303.91047   -20652.772            0   -18704.182    59.511128    32910.078 
 4950000    293.61405    -20573.19            0   -18690.618   -68.613443    32726.566 
 4960000    297.25002   -20567.776            0   -18661.891   -444.10043      33027.3 
 4970000     289.0983   -20659.664            0   -18806.046    482.88154    32703.054 
 4980000     302.9587   -20651.244            0   -18708.757    517.04882    32351.546 
 4990000    292.56011   -20679.102            0   -18803.287   -991.26111    32502.559 
 5000000    299.52091   -20655.228            0   -18734.783   -61.935702    32693.197 
Loop time of 5225.33 on 128 procs for 5000000 steps with 3152 atoms

Performance: 165.348 ns/day, 0.145 hours/ns, 956.877 timesteps/s
99.4% CPU use with 128 MPI tasks x no OpenMP threads

MPI task timing breakdown:
Section |  min time  |  avg time  |  max time  |%varavg| %total
---------------------------------------------------------------
Pair    | 1170.1     | 1416       | 1635.9     | 299.8 | 27.10
Bond    | 0.47275    | 0.5747     | 1.0043     |  11.4 |  0.01
Kspace  | 2121.2     | 2328.2     | 2551.6     | 228.5 | 44.56
Neigh   | 144.7      | 148.94     | 153.1      |  27.2 |  2.85
Comm    | 546.32     | 612.48     | 688.85     | 135.0 | 11.72
Output  | 0.045077   | 0.045784   | 0.047092   |   0.3 |  0.00
Modify  | 531.81     | 635.63     | 683.65     | 139.0 | 12.16
Other   |            | 83.47      |            |       |  1.60

Nlocal:    24.625 ave 31 max 17 min
Histogram: 5 4 10 8 13 37 20 19 6 6
Nghost:    2904.91 ave 2952 max 2876 min
Histogram: 5 18 24 30 19 15 9 6 1 1
Neighs:    9260.26 ave 13251 max 5828 min
Histogram: 3 9 15 23 21 24 20 10 1 2

Total # of neighbors = 1185313
Ave neighs/atom = 376.051
Ave special neighs/atom = 1.90355
Neighbor list builds = 436793
Dangerous builds = 0
PPPM initialization ...
  extracting TIP4P info from pair style
  using 12-bit tables for long-range coulomb (../kspace.cpp:321)
  G vector (1/distance) = 0.310549
  grid = 30 30 30
  stencil order = 5
  estimated absolute RMS force accuracy = 0.00368415
  estimated relative force accuracy = 1.10947e-05
  using double precision FFTs
  3d grid and FFT values/proc = 2475 256
Setting up Verlet run ...
  Unit style    : real
  Current step  : 0
  Time step     : 2
Per MPI rank memory allocation (min/avg/max) = 8.199 | 8.211 | 8.219 Mbytes
Density 
   1.1406214 
    1.137825 
   1.1465345 
   1.1414956 
   1.1382674 
   1.1368859 
   1.1462111 
   1.1376881 
    1.139619 
   1.1447892 
   1.1413583 
   1.1466631 
   1.1441521 
   1.1377435 
   1.1526352 
   1.1450143 
   1.1389845 
   1.1395685 
   1.1503541 
   1.1472541 
   1.1312723 
   1.1348094 
   1.1326794 
   1.1510437 
   1.1461473 
   1.1374229 
   1.1224205 
   1.1466339 
   1.1376554 
    1.142879 
   1.1285501 
    1.139307 
   1.1388387 
    1.139527 
   1.1414693 
   1.1565394 
   1.1454573 
   1.1414413 
   1.1264413 
   1.1467255 
   1.1423075 
   1.1418318 
   1.1502035 
    1.132397 
   1.1410083 
   1.1449085 
   1.1411526 
   1.1454138 
   1.1228782 
   1.1470344 
   1.1379447 
   1.1372352 
   1.1367889 
   1.1436858 
   1.1458624 
   1.1410138 
    1.142537 
   1.1335861 
   1.1395839 
   1.1480046 
   1.1338406 
   1.1343127 
   1.1333396 
   1.1546497 
   1.1423649 
   1.1499234 
   1.1465901 
   1.1341281 
   1.1244083 
   1.1398495 
   1.1538644 
   1.1444585 
   1.1518995 
   1.1211113 
   1.1323605 
   1.1209417 
   1.1411476 
   1.1340003 
   1.1512238 
   1.1474572 
   1.1532149 
   1.1292467 
   1.1383977 
    1.148585 
   1.1319722 
   1.1493141 
   1.1442645 
   1.1399675 
   1.1353716 
    1.134527 
   1.1479274 
    1.135447 
   1.1266861 
    1.153936 
   1.1415012 
   1.1310833 
   1.1432112 
   1.1413161 
   1.1558912 
   1.1538357 
   1.1402732 
   1.1293582 
   1.1283639 
   1.1591075 
   1.1432851 
   1.1302593 
   1.1308048 
   1.1562912 
   1.1372319 
   1.1397593 
   1.1419343 
   1.1455396 
   1.1378106 
     1.14958 
   1.1529173 
   1.1404373 
   1.1473106 
   1.1441958 
   1.1364623 
   1.1483196 
   1.1451819 
   1.1367779 
   1.1500614 
   1.1305585 
   1.1180525 
   1.1447379 
   1.1317088 
   1.1475103 
   1.1377549 
   1.1564605 
   1.1374416 
   1.1332423 
   1.1339842 
   1.1428828 
   1.1366812 
   1.1402599 
   1.1400138 
   1.1493777 
   1.1428488 
    1.135149 
   1.1506907 
   1.1301652 
   1.1487736 
    1.133113 
    1.133146 
   1.1288738 
   1.1431101 
    1.138932 
   1.1413336 
    1.140724 
   1.1519851 
   1.1505234 
   1.1511734 
   1.1391649 
   1.1387997 
   1.1277604 
   1.1476862 
     1.13897 
   1.1429839 
   1.1599019 
   1.1503701 
   1.1398202 
   1.1393385 
   1.1416278 
   1.1439882 
    1.143243 
   1.1422933 
    1.149413 
    1.122678 
   1.1357713 
   1.1375336 
   1.1387072 
   1.1360604 
   1.1322997 
   1.1348959 
   1.1368281 
   1.1352203 
   1.1316247 
   1.1315756 
   1.1364496 
   1.1269818 
   1.1321809 
   1.1585657 
   1.1330497 
   1.1276385 
   1.1389578 
   1.1361579 
   1.1427645 
   1.1541411 
   1.1496823 
   1.1392872 
   1.1391093 
   1.1376635 
   1.1439601 
   1.1316634 
   1.1382708 
   1.1461132 
   1.1369345 
   1.1461806 
   1.1495881 
   1.1381787 
   1.1368435 
   1.1429962 
   1.1640379 
   1.1489537 
   1.1482175 
   1.1475651 
   1.1481049 
    1.137253 
   1.1481711 
   1.1270995 
   1.1406689 
   1.1481491 
   1.1290221 
   1.1294397 
   1.1414275 
   1.1404654 
   1.1534005 
   1.1458169 
    1.132933 
   1.1443251 
   1.1475198 
    1.144778 
   1.1279288 
   1.1476942 
    1.127679 
   1.1405883 
    1.145429 
   1.1490802 
   1.1267024 
   1.1329018 
   1.1463934 
   1.1444284 
   1.1398817 
   1.1457259 
   1.1610988 
   1.1380683 
   1.1328629 
   1.1287458 
   1.1424997 
   1.1589305 
   1.1523731 
   1.1374809 
   1.1472934 
   1.1379407 
   1.1479541 
   1.1240365 
   1.1483937 
   1.1498271 
   1.1430858 
   1.1411515 
   1.1568524 
   1.1386628 
   1.1588584 
   1.1528504 
   1.1199388 
   1.1359253 
   1.1331077 
   1.1584192 
   1.1436603 
   1.1384603 
   1.1351861 
   1.1290801 
   1.1397376 
   1.1385999 
   1.1206817 
   1.1485795 
   1.1328464 
   1.1320037 
   1.1424265 
   1.1529307 
   1.1573473 
   1.1427799 
   1.1404015 
   1.1566203 
   1.1413533 
   1.1386196 
   1.1330575 
   1.1432148 
   1.1487791 
    1.135364 
   1.1510064 
     1.12783 
   1.1376571 
   1.1487972 
   1.1374375 
   1.1461066 
   1.1475594 
   1.1370806 
   1.1259496 
   1.1195139 
   1.1335413 
   1.1389925 
   1.1480779 
   1.1326917 
   1.1474046 
   1.1367387 
   1.1466118 
   1.1336693 
    1.143459 
   1.1569618 
   1.1255608 
   1.1230853 
   1.1478653 
   1.1286287 
   1.1478157 
   1.1423214 
   1.1297239 
   1.1374517 
   1.1414184 
   1.1590377 
   1.1358514 
   1.1445949 
   1.1440082 
   1.1431635 
   1.1151725 
   1.1212408 
   1.1447857 
   1.1502936 
   1.1500183 
   1.1461622 
   1.1398096 
   1.1510192 
   1.1366528 
   1.1273212 
   1.1462824 
   1.1521266 
   1.1403624 
   1.1445188 
   1.1440638 
   1.1436199 
   1.1356951 
   1.1422298 
   1.1386457 
   1.1383083 
    1.159812 
   1.1445273 
   1.1340294 
   1.1383649 
   1.1575147 
   1.1286678 
   1.1246123 
    1.140531 
   1.1391935 
   1.1324209 
   1.1345636 
   1.1227156 
   1.1632392 
   1.1354262 
   1.1510338 
   1.1384694 
   1.1330134 
   1.1525773 
   1.1569214 
   1.1494902 
    1.149252 
   1.1327818 
   1.1368782 
   1.1316345 
   1.1613733 
   1.1513667 
   1.1511027 
   1.1455297 
   1.1248985 
   1.1254894 
     1.14863 
   1.1475216 
   1.1382913 
   1.1399434 
   1.1338899 
   1.1448947 
   1.1248542 
   1.1570926 
   1.1327618 
    1.157837 
   1.1414826 
   1.1476826 
   1.1375601 
   1.1410039 
   1.1469941 
   1.1283959 
    1.132278 
   1.1201034 
   1.1444709 
   1.1424081 
   1.1502345 
   1.1487684 
   1.1413718 
   1.1321543 
   1.1443964 
   1.1462329 
   1.1455222 
   1.1407453 
   1.1445762 
   1.1447593 
   1.1480865 
   1.1402802 
   1.1339115 
   1.1529829 
   1.1174113 
   1.1486088 
   1.1421774 
   1.1343188 
   1.1282881 
   1.1438995 
   1.1524457 
   1.1440089 
   1.1358457 
   1.1468297 
   1.1234699 
   1.1508811 
   1.1454491 
    1.135132 
    1.142638 
   1.1297454 
   1.1396823 
   1.1457623 
     1.14908 
   1.1344983 
    1.139512 
   1.1287039 
    1.146496 
   1.1362357 
   1.1413098 
   1.1376191 
    1.139547 
   1.1318366 
   1.1501816 
   1.1519899 
   1.1356369 
   1.1479036 
   1.1436578 
   1.1498099 
   1.1468357 
   1.1459781 
   1.1314584 
   1.1393954 
   1.1289001 
   1.1397273 
    1.132524 
   1.1491859 
   1.1422889 
   1.1415443 
   1.1438841 
    1.131065 
   1.1405487 
   1.1421227 
   1.1419203 
   1.1250746 
   1.1626311 
   1.1440262 
   1.1486244 
   1.1302165 
    1.139881 
    1.145513 
   1.1408073 
   1.1438669 
   1.1392387 
    1.163087 
   1.1314101 
   1.1480672 
   1.1423499 
   1.1361424 
   1.1497352 
   1.1259183 
    1.136856 
   1.1334521 
   1.1463894 
   1.1365006 
   1.1270054 
   1.1464492 
   1.1424132 
   1.1583792 
   1.1380113 
   1.1433277 
   1.1284652 
    1.139538 
    1.156206 
   1.1367017 
     1.14345 
   1.1338223 
   1.1397192 
   1.1510722 
    1.134974 
    1.130577 
   1.1503242 
   1.1370866 
   1.1403242 
   1.1323848 
   1.1513812 
   1.1350063 
   1.1438141 
   1.1397025 
   1.1384042 
   1.1453675 
   1.1372156 
   1.1472513 
   1.1403729 
   1.1237376 
   1.1471296 
   1.1369575 
Loop time of 5264.26 on 128 procs for 5000000 steps with 3152 atoms

Performance: 164.126 ns/day, 0.146 hours/ns, 949.801 timesteps/s
99.3% CPU use with 128 MPI tasks x no OpenMP threads

MPI task timing breakdown:
Section |  min time  |  avg time  |  max time  |%varavg| %total
---------------------------------------------------------------
Pair    | 1164.4     | 1412.6     | 1622.5     | 298.0 | 26.83
Bond    | 0.47525    | 0.57563    | 0.96212    |  12.3 |  0.01
Kspace  | 2113       | 2317.3     | 2544       | 228.3 | 44.02
Neigh   | 144.15     | 148.51     | 153.04     |  27.7 |  2.82
Comm    | 546.74     | 613.11     | 688.34     | 136.4 | 11.65
Output  | 0.017369   | 0.022487   | 0.046505   |   2.5 |  0.00
Modify  | 585.35     | 688.74     | 738.73     | 133.9 | 13.08
Other   |            | 83.35      |            |       |  1.58

Nlocal:    24.625 ave 36 max 19 min
Histogram: 16 26 25 9 22 18 5 6 0 1
Nghost:    2901.95 ave 2930 max 2868 min
Histogram: 1 5 6 17 19 28 23 19 6 4
Neighs:    9239.94 ave 12779 max 6210 min
Histogram: 5 11 21 21 14 20 16 7 5 8

Total # of neighbors = 1182712
Ave neighs/atom = 375.226
Ave special neighs/atom = 1.90355
Neighbor list builds = 436598
Dangerous builds = 0
Changing box ...
  orthogonal box = (0.843115 0.843115 0.843115) to (32.8092 32.8531 32.8531)
  orthogonal box = (0.843115 0.843115 0.843115) to (32.8092 32.8092 32.8531)
  orthogonal box = (0.843115 0.843115 0.843115) to (32.8092 32.8092 32.8092)
PPPM initialization ...
  extracting TIP4P info from pair style
  using 12-bit tables for long-range coulomb (../kspace.cpp:321)
  G vector (1/distance) = 0.31057
  grid = 30 30 30
  stencil order = 5
  estimated absolute RMS force accuracy = 0.00368087
  estimated relative force accuracy = 1.10848e-05
  using double precision FFTs
  3d grid and FFT values/proc = 2475 256
Setting up Verlet run ...
  Unit style    : real
  Current step  : 0
  Time step     : 0.001
Per MPI rank memory allocation (min/avg/max) = 8.199 | 8.212 | 8.219 Mbytes
Density 
    1.141646 
    1.141646 
Loop time of 7.85855 on 128 procs for 10000 steps with 3152 atoms

Performance: 0.110 ns/day, 218.293 hours/ns, 1272.500 timesteps/s
99.4% CPU use with 128 MPI tasks x no OpenMP threads

MPI task timing breakdown:
Section |  min time  |  avg time  |  max time  |%varavg| %total
---------------------------------------------------------------
Pair    | 1.0956     | 2.1039     | 3.0672     |  25.1 | 26.77
Bond    | 0.00071462 | 0.00083283 | 0.001344   |   0.0 |  0.01
Kspace  | 2.9357     | 3.8692     | 4.8706     |  18.0 | 49.24
Neigh   | 0          | 0          | 0          |   0.0 |  0.00
Comm    | 0.98742    | 1.0756     | 1.169      |   4.0 | 13.69
Output  | 2.5999e-05 | 3.3171e-05 | 7.1424e-05 |   0.0 |  0.00
Modify  | 0.63377    | 0.70183    | 0.75759    |   3.8 |  8.93
Other   |            | 0.1072     |            |       |  1.36

Nlocal:    24.625 ave 33 max 17 min
Histogram: 4 10 10 24 15 28 24 3 6 4
Nghost:    2911.68 ave 2940 max 2885 min
Histogram: 2 9 14 19 26 24 12 7 10 5
Neighs:    9273.87 ave 13272 max 5290 min
Histogram: 1 6 13 22 24 30 13 8 8 3

Total # of neighbors = 1187055
Ave neighs/atom = 376.604
Ave special neighs/atom = 1.90355
Neighbor list builds = 0
Dangerous builds = 0
PPPM initialization ...
  extracting TIP4P info from pair style
  using 12-bit tables for long-range coulomb (../kspace.cpp:321)
  G vector (1/distance) = 0.31057
  grid = 30 30 30
  stencil order = 5
  estimated absolute RMS force accuracy = 0.00368087
  estimated relative force accuracy = 1.10848e-05
  using double precision FFTs
  3d grid and FFT values/proc = 2475 256
Setting up Verlet run ...
  Unit style    : real
  Current step  : 10000
  Time step     : 0.01
Per MPI rank memory allocation (min/avg/max) = 8.199 | 8.212 | 8.219 Mbytes
Density 
    1.141646 
    1.141646 
Loop time of 7.76637 on 128 procs for 10000 steps with 3152 atoms

Performance: 1.112 ns/day, 21.573 hours/ns, 1287.603 timesteps/s
99.4% CPU use with 128 MPI tasks x no OpenMP threads

MPI task timing breakdown:
Section |  min time  |  avg time  |  max time  |%varavg| %total
---------------------------------------------------------------
Pair    | 1.2124     | 2.101      | 3.0276     |  23.7 | 27.05
Bond    | 0.0007217  | 0.00083903 | 0.0013305  |   0.0 |  0.01
Kspace  | 2.8781     | 3.7747     | 4.6556     |  17.3 | 48.60
Neigh   | 0.0012134  | 0.0012376  | 0.0012671  |   0.0 |  0.02
Comm    | 0.99054    | 1.0762     | 1.1367     |   3.1 | 13.86
Output  | 2.4807e-05 | 3.2933e-05 | 9.6811e-05 |   0.0 |  0.00
Modify  | 0.63537    | 0.70194    | 0.74522    |   3.3 |  9.04
Other   |            | 0.1105     |            |       |  1.42

Nlocal:    24.625 ave 33 max 17 min
Histogram: 4 10 7 33 12 23 20 9 6 4
Nghost:    2914.26 ave 2948 max 2878 min
Histogram: 2 6 7 17 25 31 16 10 8 6
Neighs:    9273.32 ave 13798 max 5561 min
Histogram: 1 6 17 33 27 16 15 6 6 1

Total # of neighbors = 1186985
Ave neighs/atom = 376.582
Ave special neighs/atom = 1.90355
Neighbor list builds = 4
Dangerous builds = 0
PPPM initialization ...
  extracting TIP4P info from pair style
  using 12-bit tables for long-range coulomb (../kspace.cpp:321)
  G vector (1/distance) = 0.31057
  grid = 30 30 30
  stencil order = 5
  estimated absolute RMS force accuracy = 0.00368087
  estimated relative force accuracy = 1.10848e-05
  using double precision FFTs
  3d grid and FFT values/proc = 2475 256
Setting up Verlet run ...
  Unit style    : real
  Current step  : 20000
  Time step     : 0.1
Per MPI rank memory allocation (min/avg/max) = 8.199 | 8.212 | 8.219 Mbytes
Density 
    1.141646 
    1.141646 
Loop time of 8.15302 on 128 procs for 10000 steps with 3152 atoms

Performance: 10.597 ns/day, 2.265 hours/ns, 1226.540 timesteps/s
99.4% CPU use with 128 MPI tasks x no OpenMP threads

MPI task timing breakdown:
Section |  min time  |  avg time  |  max time  |%varavg| %total
---------------------------------------------------------------
Pair    | 1.357      | 2.1115     | 3.0856     |  19.3 | 25.90
Bond    | 0.00070823 | 0.00084307 | 0.0013234  |   0.0 |  0.01
Kspace  | 3.1732     | 4.1175     | 4.8604     |  13.7 | 50.50
Neigh   | 0.013872   | 0.014339   | 0.014547   |   0.1 |  0.18
Comm    | 1.0054     | 1.0976     | 1.1586     |   3.3 | 13.46
Output  | 2.5067e-05 | 3.5483e-05 | 8.2264e-05 |   0.0 |  0.00
Modify  | 0.63168    | 0.70387    | 0.75357    |   3.7 |  8.63
Other   |            | 0.1074     |            |       |  1.32

Nlocal:    24.625 ave 34 max 17 min
Histogram: 1 7 22 16 42 19 5 10 4 2
Nghost:    2910.1 ave 2936 max 2873 min
Histogram: 5 2 10 9 14 21 22 22 15 8
Neighs:    9273.33 ave 13395 max 6548 min
Histogram: 9 12 20 28 23 12 14 5 4 1

Total # of neighbors = 1186986
Ave neighs/atom = 376.582
Ave special neighs/atom = 1.90355
Neighbor list builds = 45
Dangerous builds = 0
PPPM initialization ...
  extracting TIP4P info from pair style
  using 12-bit tables for long-range coulomb (../kspace.cpp:321)
  G vector (1/distance) = 0.31057
  grid = 30 30 30
  stencil order = 5
  estimated absolute RMS force accuracy = 0.00368087
  estimated relative force accuracy = 1.10848e-05
  using double precision FFTs
  3d grid and FFT values/proc = 2475 256
Setting up Verlet run ...
  Unit style    : real
  Current step  : 30000
  Time step     : 0.2
Per MPI rank memory allocation (min/avg/max) = 8.199 | 8.212 | 8.219 Mbytes
Density 
    1.141646 
    1.141646 
Loop time of 8.13595 on 128 procs for 10000 steps with 3152 atoms

Performance: 21.239 ns/day, 1.130 hours/ns, 1229.113 timesteps/s
99.4% CPU use with 128 MPI tasks x no OpenMP threads

MPI task timing breakdown:
Section |  min time  |  avg time  |  max time  |%varavg| %total
---------------------------------------------------------------
Pair    | 1.5755     | 2.1178     | 2.926      |  17.0 | 26.03
Bond    | 0.00070967 | 0.00084172 | 0.0013165  |   0.0 |  0.01
Kspace  | 3.2047     | 4.0288     | 4.5553     |  12.3 | 49.52
Neigh   | 0.028287   | 0.028564   | 0.028851   |   0.1 |  0.35
Comm    | 1.0269     | 1.1185     | 1.1883     |   3.5 | 13.75
Output  | 3.0056e-05 | 3.9686e-05 | 7.5181e-05 |   0.0 |  0.00
Modify  | 0.65542    | 0.73013    | 0.79131    |   3.9 |  8.97
Other   |            | 0.1112     |            |       |  1.37

Nlocal:    24.625 ave 34 max 17 min
Histogram: 3 12 16 15 35 23 9 10 3 2
Nghost:    2905.29 ave 2931 max 2879 min
Histogram: 3 8 11 18 21 25 18 14 6 4
Neighs:    9277.54 ave 13048 max 5782 min
Histogram: 3 9 13 18 31 16 18 13 4 3

Total # of neighbors = 1187525
Ave neighs/atom = 376.753
Ave special neighs/atom = 1.90355
Neighbor list builds = 88
Dangerous builds = 0
PPPM initialization ...
  extracting TIP4P info from pair style
  using 12-bit tables for long-range coulomb (../kspace.cpp:321)
  G vector (1/distance) = 0.31057
  grid = 30 30 30
  stencil order = 5
  estimated absolute RMS force accuracy = 0.00368087
  estimated relative force accuracy = 1.10848e-05
  using double precision FFTs
  3d grid and FFT values/proc = 2475 256
Setting up Verlet run ...
  Unit style    : real
  Current step  : 40000
  Time step     : 0.5
Per MPI rank memory allocation (min/avg/max) = 8.199 | 8.212 | 8.219 Mbytes
Density 
    1.141646 
    1.141646 
Loop time of 7.85483 on 128 procs for 10000 steps with 3152 atoms

Performance: 54.998 ns/day, 0.436 hours/ns, 1273.102 timesteps/s
99.4% CPU use with 128 MPI tasks x no OpenMP threads

MPI task timing breakdown:
Section |  min time  |  avg time  |  max time  |%varavg| %total
---------------------------------------------------------------
Pair    | 1.6558     | 2.1367     | 2.8431     |  15.1 | 27.20
Bond    | 0.00073283 | 0.00084367 | 0.0013153  |   0.0 |  0.01
Kspace  | 3.0596     | 3.7344     | 4.2224     |  11.4 | 47.54
Neigh   | 0.068271   | 0.068748   | 0.069432   |   0.1 |  0.88
Comm    | 1.01       | 1.0928     | 1.1521     |   3.4 | 13.91
Output  | 3.2891e-05 | 4.2602e-05 | 8.2173e-05 |   0.0 |  0.00
Modify  | 0.63976    | 0.71127    | 0.7624     |   3.7 |  9.06
Other   |            | 0.11       |            |       |  1.40

Nlocal:    24.625 ave 34 max 15 min
Histogram: 1 1 10 21 34 27 21 9 1 3
Nghost:    2913.36 ave 2943 max 2874 min
Histogram: 6 4 8 13 17 19 21 15 16 9
Neighs:    9274.44 ave 13197 max 6203 min
Histogram: 8 10 16 24 20 21 18 4 4 3

Total # of neighbors = 1187128
Ave neighs/atom = 376.627
Ave special neighs/atom = 1.90355
Neighbor list builds = 219
Dangerous builds = 0
PPPM initialization ...
  extracting TIP4P info from pair style
  using 12-bit tables for long-range coulomb (../kspace.cpp:321)
  G vector (1/distance) = 0.31057
  grid = 30 30 30
  stencil order = 5
  estimated absolute RMS force accuracy = 0.00368087
  estimated relative force accuracy = 1.10848e-05
  using double precision FFTs
  3d grid and FFT values/proc = 2475 256
Setting up Verlet run ...
  Unit style    : real
  Current step  : 0
  Time step     : 2
Per MPI rank memory allocation (min/avg/max) = 8.199 | 8.212 | 8.219 Mbytes
Density 
    1.141646 
    1.141646 
    1.141646 
    1.141646 
    1.141646 
    1.141646 
    1.141646 
    1.141646 
    1.141646 
    1.141646 
    1.141646 
Loop time of 88.2618 on 128 procs for 100000 steps with 3152 atoms

Performance: 195.781 ns/day, 0.123 hours/ns, 1132.993 timesteps/s
99.3% CPU use with 128 MPI tasks x no OpenMP threads

MPI task timing breakdown:
Section |  min time  |  avg time  |  max time  |%varavg| %total
---------------------------------------------------------------
Pair    | 17.757     | 21.825     | 25.369     |  38.6 | 24.73
Bond    | 0.0071864  | 0.0084623  | 0.013585   |   1.0 |  0.01
Kspace  | 38.692     | 42.362     | 46.554     |  28.1 | 48.00
Neigh   | 2.9046     | 2.9414     | 2.9736     |   1.0 |  3.33
Comm    | 11.263     | 12.169     | 12.783     |  10.7 | 13.79
Output  | 0.00031524 | 0.00039793 | 0.00088694 |   0.0 |  0.00
Modify  | 7.1275     | 7.7737     | 8.342      |  11.8 |  8.81
Other   |            | 1.181      |            |       |  1.34

Nlocal:    24.625 ave 34 max 14 min
Histogram: 1 1 5 16 22 34 25 12 10 2
Nghost:    2906.12 ave 2938 max 2874 min
Histogram: 5 3 16 15 28 23 15 9 10 4
Neighs:    9270.63 ave 13584 max 5476 min
Histogram: 4 5 14 25 27 19 20 7 4 3

Total # of neighbors = 1186641
Ave neighs/atom = 376.472
Ave special neighs/atom = 1.90355
Neighbor list builds = 8660
Dangerous builds = 0
WARNING: New thermo_style command, previous thermo_modify settings will be lost (../output.cpp:705)
PPPM initialization ...
  extracting TIP4P info from pair style
  using 12-bit tables for long-range coulomb (../kspace.cpp:321)
  G vector (1/distance) = 0.31057
  grid = 30 30 30
  stencil order = 5
  estimated absolute RMS force accuracy = 0.00368087
  estimated relative force accuracy = 1.10848e-05
  using double precision FFTs
  3d grid and FFT values/proc = 2475 256
Setting up Verlet run ...
  Unit style    : real
  Current step  : 0
  Time step     : 2
[...]
98200000    296.45788    298.41348   -158.35991    24.726516   -20605.303    1900.8056   -18704.498 
98210000    298.95018    298.32421   -533.57588   -18.827769     -20565.1    1916.7855   -18648.315 
98220000    304.31105    298.34651   -121.02345    65.364076   -20568.346     1951.158   -18617.188 
98230000    304.41581    297.79977    121.05992    15.134854   -20534.421    1951.8297   -18582.592 
98240000    287.99907    298.21862   -285.84988    95.799845   -20573.458    1846.5701   -18726.887 
98250000    302.72379    297.80021    128.70452    4.0914711   -20637.022    1940.9809   -18696.041 
98260000    290.43568    297.85413   -94.290853   -63.917169   -20713.481    1862.1929   -18851.288 
98270000     298.5458    298.20616    350.75591   -35.512334   -20586.069    1914.1928   -18671.877 
98280000    296.88751     298.0633   -246.93164   -6.5879652   -20581.558    1903.5603   -18677.998 
98290000    301.01096    298.34619    216.53992   -105.94081   -20619.094    1929.9987   -18689.095 
98300000    296.71446    297.96557    312.78696   -142.42052   -20610.319    1902.4507   -18707.868 
98310000    293.28786    298.34863   -169.58833   -10.236196   -20625.107    1880.4803   -18744.626 
98320000    289.17454    298.06428    103.21183   -25.673373    -20546.12    1854.1069   -18692.013 
98330000     301.5433    298.10232    321.75981    43.331524   -20631.115    1933.4119   -18697.704 
98340000    288.15082    297.20479   -340.09024   -33.183133   -20697.804    1847.5431   -18850.261 
98350000    301.83792    297.95268    -156.6679     32.97528   -20647.996     1935.301   -18712.695 
98360000    292.51352    297.95227    167.23536    10.404697   -20626.113    1875.5155   -18750.597 
98370000    298.53407    298.12258    638.38239   -11.725029   -20604.336    1914.1176   -18690.218 
98380000    293.27198    297.76834   -432.54057     14.36791   -20684.315    1880.3786   -18803.936 
98390000    295.86683    297.86819    196.99182    2.2321562   -20516.965     1897.016   -18619.949 
98400000    296.27384    297.87284     -458.221   -12.987828   -20660.958    1899.6256   -18761.332 
98410000    306.84973     298.2568   -201.56363    25.064508   -20586.817    1967.4353   -18619.381 
98420000    304.04172    298.02602   -339.10299    64.251817   -20620.317    1949.4311   -18670.886 
98430000     296.8605    297.98776   -91.559005   -7.6912989    -20617.36    1903.3871   -18713.973 
98440000    294.22014    298.12212    -354.3824    52.891407   -20647.753    1886.4579   -18761.296 
98450000    298.84939    297.76122     -182.221    44.187167   -20629.988    1916.1393   -18713.849 
98460000    293.70668    298.27245    277.11481   -70.895085   -20649.238    1883.1657   -18766.072 
98470000    293.22307    297.92393    105.33933    86.230085   -20547.746    1880.0649   -18667.681 
98480000    299.79627    298.18425   -463.80785   -166.55369   -20622.361    1922.2105   -18700.151 
98490000    298.54419    297.55356    288.73456    7.7822526    -20703.99    1914.1825   -18789.807 
98500000    299.79732    297.78444   -812.57718    -81.32647   -20680.068    1922.2172   -18757.851 
98510000    302.08018    298.29222    62.561571   -158.76636   -20641.791    1936.8543   -18704.936 
98520000    298.30618      297.458   -278.09007   -68.111992   -20664.132    1912.6564   -18751.476 
98530000    302.78696    298.40281    673.93871   -169.29909   -20642.547    1941.3859   -18701.161 
98540000    290.40664    298.16467   -427.01977    56.477463   -20634.919    1862.0068   -18772.912 
98550000    307.01429    298.43835   -147.77766    15.608243   -20631.418    1968.4904   -18662.928 
98560000    299.12788    298.07976    656.04673   -28.039494   -20645.998    1917.9249   -18728.073 
98570000    305.73869    298.05211   -281.74017   -10.801472   -20660.485    1960.3116   -18700.174 
98580000      301.188    297.80942    339.38187   -87.680786   -20628.651    1931.1338   -18697.517 
98590000    300.98385    298.21992   -180.28869    -115.0481   -20655.387    1929.8249   -18725.562 
98600000    299.38417    297.99731   -39.148009   0.20565925   -20720.739    1919.5682   -18801.171 
98610000    299.59387    298.01807    743.59715    30.776588   -20539.634    1920.9127   -18618.721 
98620000    295.85934    297.75927    425.65512    92.403686    -20578.96     1896.968   -18681.992 
98630000    294.34797     298.2772    31.806557    93.326991   -20560.438    1887.2775    -18673.16 
98640000    293.54859    297.63567   -42.101193   -71.824459   -20649.943    1882.1521   -18767.791 
98650000    300.90835    297.65593   -98.965449   -35.593857   -20705.517    1929.3408   -18776.176 
98660000    295.70678    297.65979   -520.41966   -69.939445   -20657.439    1895.9898   -18761.449 
98670000    305.40156    298.19507   -479.04013   -16.369098   -20556.553      1958.15   -18598.403 
98680000    300.35197    298.30576   -341.32387   -19.715529   -20675.215    1925.7735   -18749.441 
98690000    300.08398    298.30952    345.38974    9.8906683   -20557.325    1924.0552    -18633.27 
98700000    295.72715    297.77691   -223.26825    21.571762   -20648.388    1896.1204   -18752.267 
98710000    290.89964    297.72524    679.81128    75.773596    -20581.27    1865.1677   -18716.102 
98720000    304.78867    298.14641     224.5847        39.76   -20540.979    1954.2204   -18586.759 
98730000    300.05177    298.24809    201.23988   -140.32083   -20640.974    1923.8487   -18717.125 
98740000    304.31402    298.14742    52.874132    70.910674   -20594.728     1951.177   -18643.551 
98750000    306.20435    297.67433    179.15849    8.1183061   -20597.044    1963.2973   -18633.747 
98760000    289.05687     298.3437    371.28551   -42.650808   -20712.915    1853.3524   -18859.563 
98770000    298.97689    298.64626    269.59846   -28.628743   -20633.451    1916.9568   -18716.495 
98780000    301.19228    297.84196    24.152468    85.171934   -20581.226    1931.1613   -18650.065 
98790000    304.83094    298.07665   -204.06081    44.287892   -20589.769    1954.4914   -18635.278 
98800000    298.29141    297.77173   -139.71039   -11.832419   -20565.046    1912.5618   -18652.484 
98810000    305.29139    298.08051    61.703268   -45.567569   -20661.308    1957.4436   -18703.864 
98820000    298.05335    298.60711   -121.98726    31.748713   -20596.768    1911.0353   -18685.732 
98830000    297.09987    298.41308   0.73316492   -22.329571   -20553.811    1904.9219   -18648.889 
98840000    299.83909    297.81351    21.207922   -72.222759   -20628.065     1922.485    -18705.58 
98850000    296.03281    298.40557    513.56411   -78.354132   -20710.949    1898.0802   -18812.869 
98860000      301.842    298.11694    328.64095   -8.9750029   -20550.342    1935.3271   -18615.015 
98870000    301.24993    297.95709     73.22032    -74.94309   -20597.652    1931.5309   -18666.121 
98880000    297.03362    297.98147   -127.01044     -71.6211   -20580.359    1904.4971   -18675.862 
98890000    296.09954    298.12663    186.15866   -50.450101   -20602.661    1898.5081   -18704.153 
98900000    290.58027    297.69175    295.39219   -46.175189   -20596.114      1863.12   -18732.994 
98910000    304.67083     297.7665   -54.399325    43.349228   -20638.991    1953.4648   -18685.526 
98920000    304.00867     297.5189    264.87363    42.170346   -20603.729    1949.2192    -18654.51 
98930000    301.45106    297.76782    72.609739     71.04257    -20587.93    1932.8205   -18655.109 
98940000    297.56953    298.39614    333.00168    42.908457    -20633.51    1907.9332   -18725.577 
98950000    299.74442    297.92531    276.98343    19.735973   -20619.319     1921.878   -18697.441 
98960000    294.69239    298.16004    130.56634    127.05295    -20669.72    1889.4858   -18780.234 
98970000    299.73002    297.50676    295.04626   -52.832796   -20598.401    1921.7857   -18676.615 
98980000    291.60936    297.91689    39.029972   -88.038118   -20643.339    1869.7183   -18773.621 
98990000    309.44645    297.90934   -773.94214    2.2789918   -20584.377    1984.0847   -18600.292 
99000000    300.90039    298.71694   -915.38822     44.94087   -20630.442    1929.2898   -18701.152 
99010000    286.74088    297.86908   -53.864956    -87.08498   -20572.892    1838.5029   -18734.389 
99020000    295.42588    297.71505   -107.54724   -11.750741   -20673.553    1894.1887   -18779.364 
99030000    299.45884     297.7187    103.19257   0.21954918   -20681.206     1920.047   -18761.159 
99040000    286.16674    298.31152   -284.42537   -4.9172186   -20639.947    1834.8217   -18805.125 
99050000    302.23219    298.14622    222.23674   -23.608734   -20664.716    1937.8289   -18726.887 
99060000    290.98126    297.61171    665.92422   -59.639118   -20611.658    1865.6911   -18745.967 
99070000    301.70431    297.74968   -461.72257   -6.7359034   -20663.847    1934.4443   -18729.402 
99080000    292.38217    298.40554    -258.5069    15.808572   -20663.087    1874.6733   -18788.414 
99090000    298.78771    297.78799    22.716281   -5.4059696   -20618.437    1915.7439   -18702.694 
99100000    306.75645    297.69109     296.3517   -62.820489   -20596.861    1966.8372   -18630.024 
99110000    293.41771    297.70513    389.77969    83.640063   -20604.652    1881.3129   -18723.339 
99120000    298.80531    298.45918   -743.44324   -46.080918   -20658.179    1915.8567   -18742.323 
99130000    304.01222    298.27712   -188.01737   -17.059273   -20703.574     1949.242   -18754.332 
99140000      288.971     297.9829   -311.03724    18.990327   -20596.117    1852.8019   -18743.315 
99150000    286.53784     297.7752    651.25315    72.064977   -20637.242    1837.2011   -18800.041 
99160000    297.30996    298.08695    103.79799   -13.540559   -20622.401    1906.2689   -18716.132 
99170000    296.93333    297.81763   -293.13602   -42.187954   -20686.328    1903.8541   -18782.474 
99180000    294.51161    297.83452   -964.95624    48.287253   -20741.409    1888.3267   -18853.082 
99190000    300.76236    297.80502   -78.750908    45.889384   -20622.228    1928.4048   -18693.823 
99200000    293.25371    298.15552    191.25002   -62.047145   -20597.163    1880.2614   -18716.902 
99210000    301.87739    297.79453   -264.89715    90.904819    -20621.29     1935.554   -18685.736 
99220000    288.86231    298.02786   -537.07575   -8.5129153   -20665.247    1852.1049   -18813.142 
99230000    296.65633     297.8684    879.76401   -22.137802   -20685.452     1902.078   -18783.374 
99240000     285.5756    297.95331    71.923074    74.222985   -20632.333    1831.0315   -18801.302 
99250000    299.67479    298.37838   -3.8926581    37.897821   -20706.603    1921.4316   -18785.172 
99260000     299.2507    297.98505    413.67278   -103.66837   -20600.104    1918.7124   -18681.391 
99270000    300.30679    297.51299   -635.23624    44.784047   -20643.152    1925.4838   -18717.669 
99280000    297.37736    298.02696   -477.78471    -38.62803   -20618.827    1906.7011   -18712.126 
99290000    300.93934     297.9041    325.54705   -87.517216    -20531.45    1929.5395   -18601.911 
99300000    290.63916    298.08552   -136.09207    -82.23922   -20592.779    1863.4976   -18729.281 
99310000    304.24429     297.4431   -537.13485   -8.2049752   -20663.202    1950.7299   -18712.472 
99320000    292.84149    298.03079    251.23527    55.558677   -20705.933    1877.6184   -18828.315 
99330000    294.84792    298.32735    48.814733    18.585426   -20581.387     1890.483   -18690.904 
99340000    295.53379     298.1494    482.97854   -16.815918   -20704.589    1894.8806   -18809.708 
99350000    306.85355    297.86304   -205.95596   -122.25202   -20630.362    1967.4598   -18662.902 
99360000    291.98726    298.05902   -505.43282   -81.422375   -20626.751    1872.1413    -18754.61 
99370000    296.99041    297.93171    200.57102   -109.29289    -20641.58    1904.2201    -18737.36 
99380000    298.49883     298.1452    183.29883    11.329329   -20680.599    1913.8917   -18766.707 
99390000    301.34496    298.14695   -85.544796   -92.908719   -20646.324    1932.1402   -18714.184 
99400000    304.19099    298.27949    363.52825   -60.249757   -20504.995    1950.3882   -18554.607 
99410000    303.74741    297.74853    5.3639285   -118.55587   -20709.351    1947.5441   -18761.806 
99420000    289.70161    297.70073    26.389547    2.8880255   -20625.239    1857.4863   -18767.753 
99430000    302.21209      297.915   -85.935718    -8.890224   -20637.181    1937.7001   -18699.481 
99440000    298.56424     297.8643   -188.65702   -45.225305   -20692.739    1914.3111   -18778.427 
99450000    289.27965    298.02864   -506.03695   -25.795601   -20609.418    1854.7808   -18754.637 
99460000    296.60728    297.76205   -78.930253    32.386575   -20644.988    1901.7636   -18743.224 
99470000      300.475    297.79267    337.15244    14.487676   -20676.111    1926.5623   -18749.549 
99480000    297.03429    297.79169   -126.57213   -55.356015   -20617.094    1904.5014   -18712.592 
99490000    292.33984    297.99318    391.10988   -29.741279   -20595.111    1874.4019    -18720.71 
99500000    290.03568    297.77795    -740.3603   -27.582653   -20643.864    1859.6283   -18784.235 
99510000    289.94722    297.71383   -496.62857   -2.1157735   -20596.183    1859.0611   -18737.122 
99520000    301.92262    297.91928   -823.63211    6.3847395   -20627.893     1935.844   -18692.049 
99530000    297.00792    297.62922   -102.43985    73.983787   -20573.495    1904.3324   -18669.163 
99540000     290.7794    298.05771    330.65535   -110.16522   -20612.772    1864.3968   -18748.375 
99550000    301.31137    297.76333   -757.68738    18.551154   -20612.762    1931.9248   -18680.837 
99560000    294.09963    297.87014   -380.64511    128.77292   -20554.627    1885.6852   -18668.942 
99570000    300.46637    297.75883   -594.94584   -105.38159    -20616.31     1926.507   -18689.803 
99580000    293.73315    298.19449    63.336054    17.964761   -20717.904    1883.3354   -18834.568 
99590000    298.33352    297.79281   -151.17982    33.212712   -20599.405    1912.8317   -18686.573 
99600000    298.56943    297.66095    -569.6488    12.543077   -20656.413    1914.3443   -18742.068 
99610000    302.19808    298.13811   -131.07143    76.348997   -20601.491    1937.6102   -18663.881 
99620000    299.28799    298.01229    -271.2173    6.4177843   -20654.003    1918.9515   -18735.051 
99630000    290.53424    298.29961   -130.61845   -15.067649   -20578.921    1862.8249   -18716.096 
99640000    289.56128    298.39761    50.089974    70.267173   -20660.818    1856.5865   -18804.232 
99650000    305.63083    298.18105   -550.63142    -41.45265    -20677.71      1959.62    -18718.09 
99660000    298.79172    297.97476    913.65968   -28.158543   -20649.171    1915.7695   -18733.402 
99670000    301.75373    298.08393    496.91866    71.960307   -20692.962    1934.7612   -18758.201 
99680000    300.34373    298.07237    486.15842     28.45686   -20580.345    1925.7206   -18654.624 
99690000    299.97077    298.45484    8.9661752    23.905633   -20588.767    1923.3293   -18665.438 
99700000     302.4864    297.84028   -779.34795   -8.8652188   -20660.347    1939.4588   -18720.889 
99710000    293.90018    297.86798    200.32573   -7.9296477   -20640.703    1884.4064   -18756.297 
99720000    297.70346    298.82337    802.13392   -6.5835445   -20594.703     1908.792   -18685.912 
99730000    296.48929    297.88794     123.7976     -7.27265   -20582.619     1901.007   -18681.612 
99740000    310.51487    297.93491     367.4478   -1.3810636   -20630.001    1990.9351   -18639.066 
99750000    294.59695    298.01455    322.72691    53.205999   -20553.862    1888.8739   -18664.988 
99760000    298.32599    298.02088    1026.1079    95.436674   -20705.741    1912.7834   -18792.957 
99770000    293.59086    298.28523   -676.34412   -4.2150458   -20667.176    1882.4231   -18784.753 
99780000    309.20712    298.22276     237.7191   -164.92751   -20588.878    1982.5503   -18606.327 
99790000    300.17745    298.18152   -507.18288    -49.89535   -20582.808    1924.6545   -18658.154 
99800000    302.78817     297.7617   -901.26133    44.329355   -20591.118    1941.3937   -18649.724 
99810000    297.54426    298.26529    -193.8652   -25.609456   -20639.065    1907.7712   -18731.293 
99820000    299.09239    298.51299    283.77374    33.029333    -20588.37    1917.6974   -18670.673 
99830000    290.59105     298.4348    1007.1024    41.768516   -20631.929    1863.1891    -18768.74 
99840000    292.78832    298.13263    426.13839     9.107608   -20642.576    1877.2774   -18765.299 
99850000    299.83014    297.89277   -469.33053   -25.069921    -20631.52    1922.4276   -18709.093 
99860000    303.45605    297.62607    -414.9055   -97.147533   -20650.929     1945.676   -18705.253 
99870000    303.94128    297.95682    315.95115   -90.743782   -20626.941    1948.7872   -18678.154 
99880000    298.31585    297.83244    204.37255   -10.623638   -20687.109    1912.7185   -18774.391 
99890000    299.28814    298.14473    524.09617    19.644775    -20684.71    1918.9525   -18765.758 
99900000    297.43161    298.23522   -196.55891    171.56216   -20643.205    1907.0489   -18736.157 
99910000    296.99135    298.35377   -273.71177    227.63579   -20585.203    1904.2261   -18680.977 
99920000    298.32712    297.80429   -92.921412    63.673446   -20632.612    1912.7907   -18719.822 
99930000    301.10326     297.7564   -73.836937   -105.30123   -20694.089    1930.5905   -18763.498 
99940000     295.3377     297.9289    651.75192    29.496053   -20614.511    1893.6233   -18720.888 
99950000    297.08799    298.07079    297.98143    30.861642   -20653.246    1904.8457   -18748.401 
99960000    304.15057    297.73543   -103.43122   -46.495925   -20658.096     1950.129   -18707.967 
99970000    296.02051    298.39728   -410.07157   -116.40426   -20652.343    1898.0013   -18754.342 
99980000    294.47059    297.75701    246.96092   -48.188047   -20561.645    1888.0637   -18673.582 
99990000    303.43224    297.66396   -196.51287   -7.4811463   -20620.121    1945.5233   -18674.598 
100000000    294.63504    297.94631    205.93353    2.2050264   -20520.268    1889.1181    -18631.15 
Loop time of 92442.7 on 128 procs for 100000000 steps with 3152 atoms

Performance: 186.927 ns/day, 0.128 hours/ns, 1081.751 timesteps/s
99.3% CPU use with 128 MPI tasks x no OpenMP threads

MPI task timing breakdown:
Section |  min time  |  avg time  |  max time  |%varavg| %total
---------------------------------------------------------------
Pair    | 19866      | 23593      | 27223      |1175.7 | 25.52
Bond    | 8.7546     | 9.9492     | 14.893     |  30.8 |  0.01
Kspace  | 38487      | 42301      | 46052      | 883.1 | 45.76
Neigh   | 2924.7     | 2951.8     | 2976       |  21.2 |  3.19
Comm    | 11557      | 12397      | 13092      | 333.3 | 13.41
Output  | 4.0508     | 85.271     | 100.85     | 169.2 |  0.09
Modify  | 8937.2     | 9573       | 10171      | 329.4 | 10.36
Other   |            | 1531       |            |       |  1.66

Nlocal:    24.625 ave 33 max 16 min
Histogram: 2 8 15 11 27 31 7 16 8 3
Nghost:    2908.91 ave 2932 max 2884 min
Histogram: 2 8 13 21 14 23 19 13 11 4
Neighs:    9271.59 ave 13197 max 5463 min
Histogram: 1 10 11 19 30 20 20 9 3 5

Total # of neighbors = 1186764
Ave neighs/atom = 376.511
Ave special neighs/atom = 1.90355
Neighbor list builds = 8648031
Dangerous builds = 0

JOB STATISTICS
==============
Job ID: 2423577
Cluster: snellius
User/Group: phabibi/phabibi
State: RUNNING
Nodes: 1
Cores per node: 128
CPU Utilized: 00:00:00
CPU Efficiency: 0.00% of 152-23:00:16 core-walltime
Job Wall-clock time: 1-04:40:47
Memory Utilized: 0.00 MB (estimated maximum)
Memory Efficiency: 0.00% of 224.00 GB (1.75 GB/core)
WARNING: Efficiency statistics may be misleading for RUNNING jobs.
